   * xtb version 6.5.1 (conda-forge) compiled by 'runner@Mac-1657629245115.local' on 2022-07-12
          program call               : xtb B2BeH4.xyz --gfn 2 --opt

   ID    Z sym.   atoms
    1    4 Be     1
    2    5 B      2, 3
    3    1 H      4-7

          :  Hamiltonian                  GFN2-xTB          :
 * total energy  :    -4.5096902 Eh     change        0.7190204E-09 Eh
 * total energy  :    -4.6450988 Eh     change       -0.1354087E+00 Eh
 * total energy  :    -4.7148010 Eh     change       -0.6970212E-01 Eh
 * total energy  :    -4.7431576 Eh     change       -0.2835664E-01 Eh
 * total energy  :    -4.7945641 Eh     change       -0.5140653E-01 Eh
 * total energy  :    -4.8615274 Eh     change       -0.6696327E-01 Eh
 * total energy  :    -4.8923080 Eh     change       -0.3078063E-01 Eh
 * total energy  :    -4.9129924 Eh     change       -0.2068440E-01 Eh
 * total energy  :    -4.9223369 Eh     change       -0.9344472E-02 Eh
 * total energy  :    -4.9391861 Eh     change       -0.1684918E-01 Eh
 * total energy  :    -4.9696174 Eh     change       -0.6775082E-04 Eh
 * total energy  :    -4.9697157 Eh     change       -0.9830932E-04 Eh
 * total energy  :    -4.9697566 Eh     change       -0.4087052E-04 Eh
 * total energy  :    -4.9698090 Eh     change       -0.5240422E-04 Eh
 * total energy  :    -4.9698353 Eh     change       -0.2634596E-04 Eh
 * total energy  :    -4.9698605 Eh     change       -0.2513116E-04 Eh
 * total energy  :    -4.9698714 Eh     change       -0.1092318E-04 Eh
 * total energy  :    -4.9698789 Eh     change       -0.7559589E-05 Eh
 * total energy  :    -4.9698824 Eh     change       -0.3433261E-05 Eh
   *** GEOMETRY OPTIMIZATION CONVERGED AFTER 39 ITERATIONS ***

 final structure:
================
7
 xtb: 6.5.1 (conda-forge)
Be          -0.71897589006487        0.03574948462159        0.13589349315427
B            1.95464163653518        0.27991429145753        1.85860065293467
B            0.66599173505370        0.15842103168679        1.03207120049046
H            2.59069052886892       -0.64990714764756        2.23883639068058
H            2.42695050581149        1.32444959925744        2.18318184231749
H            0.34059477042386        0.23164841689229        3.87975557269874
H            0.13210671337194        0.24772432373251        4.64366084772383

          :  Hamiltonian                  GFN2-xTB          :
         :: total energy              -4.969882368698 Eh    ::
         :: gradient norm              0.000933928076 Eh/a0 ::
         :: HOMO-LUMO gap              0.951894987164 eV    ::
         :: SCC energy                -5.057600910215 Eh    ::
         :: -> dispersion             -0.002729413879 Eh    ::
         :: repulsion energy           0.087716413530 Eh    ::

    * Orbital Energies and Occupations

         #    Occupation            Energy/Eh            Energy/eV
      -------------------------------------------------------------
         1        2.0000           -0.4324748             -11.7682
         2        2.0000           -0.4053224             -11.0294
         3        2.0000           -0.3613308              -9.8323
         4        2.0000           -0.3376375              -9.1876
         5        2.0000           -0.2953624              -8.0372
         6        2.0000           -0.2516880              -6.8488 (HOMO)
         7                         -0.2167065              -5.8969 (LUMO)
         8                         -0.1894518              -5.1552
         9                         -0.1498493              -4.0776
        10                         -0.0617028              -1.6790
        11                         -0.0140208              -0.3815
        12                          0.1591018               4.3294
        13                          0.4229050              11.5078
        14                          0.4539384              12.3523
        15                          0.7403958              20.1472
        16                          0.8463550              23.0305
      -------------------------------------------------------------
                  HL-Gap            0.0349815 Eh            0.9519 eV

     #   Z          covCN         q      C6AA      α(0)
     1   4 Be       0.912     0.329    68.835    24.884
     2   5 B        2.840     0.071    20.227     7.511
     3   5 B        1.889    -0.089    47.834    14.562
     4   1 H        0.932    -0.145     7.449     4.268
     5   1 H        0.931    -0.146     7.472     4.274
     6   1 H        0.762     0.017     2.867     2.669
     7   1 H        0.762    -0.037     3.906     3.115

Wiberg/Mayer (AO) data.
largest (>0.10) Wiberg bond orders for each atom

     #   Z sym  total        # sym  WBO       # sym  WBO       # sym  WBO
 ---------------------------------------------------------------------------
     1   4 Be   1.907 --     3 B    1.601     2 B    0.283
     2   5 B    3.560 --     3 B    1.441     4 H    0.913     5 H    0.911
                             1 Be   0.283
     3   5 B    3.180 --     1 Be   1.601     2 B    1.441
Note: The following floating-point exceptions are signalling: IEEE_UNDERFLOW_FLAG
normal termination of xtb
     4   1 H    0.979 --     2 B    0.913
     5   1 H    0.979 --     2 B    0.911
     6   1 H    1.000 --     7 H    0.977
     7   1 H    0.999 --     6 H    0.977
 ---------------------------------------------------------------------------

molecular dipole:
                 x           y           z       tot (Debye)
 q only:       -1.676      -0.163      -1.255
   full:       -2.603      -0.239      -1.844       8.130

           -------------------------------------------------
          | TOTAL ENERGY               -4.969882368698 Eh   |
          | GRADIENT NORM               0.000933928076 Eh/α |
          | HOMO-LUMO GAP               0.951894987164 eV   |
           -------------------------------------------------

 * finished run on 2025/06/07 at 03:27:43.041
