   * xtb version 6.5.1 (conda-forge) compiled by 'runner@Mac-1657629245115.local' on 2022-07-12
          program call               : xtb B2BeCH3.xyz --gfn 2 --opt

   ID    Z sym.   atoms
    1    4 Be     1
    2    5 B      2, 3
    3    6 C      4
    4    1 H      5-7

          :  Hamiltonian                  GFN2-xTB          :
 * total energy  :    -6.0511558 Eh     change        0.7605989E-08 Eh
 * total energy  :    -6.1982793 Eh     change       -0.1471235E+00 Eh
 * total energy  :    -6.2880786 Eh     change       -0.8979933E-01 Eh
 * total energy  :    -6.3405187 Eh     change       -0.5244002E-01 Eh
 * total energy  :    -6.3972301 Eh     change       -0.5671145E-01 Eh
 * total energy  :    -6.4219853 Eh     change       -0.2475523E-01 Eh
 * total energy  :    -6.4707078 Eh     change       -0.4872243E-01 Eh
 * total energy  :    -6.4984885 Eh     change       -0.2778067E-01 Eh
 * total energy  :    -6.5133356 Eh     change       -0.1484717E-01 Eh
 * total energy  :    -6.5175467 Eh     change       -0.4211088E-02 Eh
 * total energy  :    -6.5415761 Eh     change       -0.1307418E-03 Eh
 * total energy  :    -6.5415953 Eh     change       -0.1916971E-04 Eh
 * total energy  :    -6.5416236 Eh     change       -0.2834064E-04 Eh
 * total energy  :    -6.5416478 Eh     change       -0.2415739E-04 Eh
 * total energy  :    -6.5416899 Eh     change       -0.4213271E-04 Eh
 * total energy  :    -6.5417359 Eh     change       -0.4601017E-04 Eh
 * total energy  :    -6.5417283 Eh     change        0.7620435E-05 Eh
 * total energy  :    -6.5417550 Eh     change       -0.2671430E-04 Eh
 * total energy  :    -6.5417599 Eh     change       -0.4887989E-05 Eh
   *** GEOMETRY OPTIMIZATION CONVERGED AFTER 48 ITERATIONS ***

 final structure:
================
7
 xtb: 6.5.1 (conda-forge)
Be           0.25053163684617        0.37026611254834        1.28895729967354
B            1.64299360772420       -0.37721930279431        0.65326544149270
B            1.43696869691330        0.29289802414119        2.55369546604700
C            2.52043281487396       -0.36785977606441        1.80496944311123
H            3.52188020028427       -0.69179059002444        2.04900174199675
H            2.11292912107394        0.82745705068566        5.02096870175112
H            1.83526392228437        0.65119348150853        4.14114190592790

          :  Hamiltonian                  GFN2-xTB          :
         :: total energy              -6.541759905323 Eh    ::
         :: gradient norm              0.000671736783 Eh/a0 ::
         :: HOMO-LUMO gap              1.876425166158 eV    ::
         :: SCC energy                -6.652717800890 Eh    ::
         :: -> dispersion             -0.003127523568 Eh    ::
         :: repulsion energy           0.110957195742 Eh    ::

    * Orbital Energies and Occupations

         #    Occupation            Energy/Eh            Energy/eV
      -------------------------------------------------------------
         1        2.0000           -0.4968798             -13.5208
         2        2.0000           -0.4335894             -11.7986
         3        2.0000           -0.4220917             -11.4857
         4        2.0000           -0.3605409              -9.8108
         5        2.0000           -0.3368270              -9.1655
         6        2.0000           -0.3272901              -8.9060
         7        2.0000           -0.2969140              -8.0794
         8        1.0000           -0.2355177              -6.4088 (HOMO)
         9                         -0.1665604              -4.5323 (LUMO)
        10                         -0.1644071              -4.4737
        11                         -0.1613102              -4.3895
        12                         -0.1264825              -3.4418
        13                          0.0020189               0.0549
        14                          0.1982018               5.3933
        15                          0.2632232               7.1627
        16                          0.2847842               7.7494
        17                          0.4729123              12.8686
        18                          0.5367855              14.6067
        19                          1.3764719              37.4557
      -------------------------------------------------------------
                  HL-Gap            0.0689574 Eh            1.8764 eV

     #   Z          covCN         q      C6AA      α(0)
     1   4 Be       1.976     0.358    15.150     8.991
     2   5 B        2.363    -0.005    29.626    10.288
     3   5 B        2.411     0.016    26.594     9.450
     4   6 C        2.896    -0.231    34.212     9.590
     5   1 H        0.926    -0.031     3.653     2.989
     6   1 H        0.140    -0.108    14.425     6.938
     7   1 H        0.190     0.001     7.452     4.982

Wiberg/Mayer (AO) data.
largest (>0.10) Wiberg bond orders for each atom

     #   Z sym  total        # sym  WBO       # sym  WBO       # sym  WBO
 ---------------------------------------------------------------------------
     1   4 Be   2.063 --     2 B    1.012     3 B    0.907
     2   5 B    2.953 --     4 C    1.497     1 Be   1.012     3 B    0.422
     3   5 B    2.989 --     4 C    1.376     1 Be   0.907     2 B    0.422
                             7 H    0.250
     4   6 C    3.953 --     2 B    1.497     3 B    1.376     5 H    0.965
     5   1 H    0.990 --     4 C    0.965
     6   1 H    0.803 --     7 H    0.723
     7   1 H    0.989 --     6 H    0.723     3 B    0.250
 ---------------------------------------------------------------------------

molecular dipole:
                 x           y           z       tot (Debye)
 q only:       -1.536       0.296      -0.981
   full:       -1.484       0.333      -0.796       4.363

           -------------------------------------------------
          | TOTAL ENERGY               -6.541759905323 Eh   |
          | GRADIENT NORM               0.000671736783 Eh/α |
          | HOMO-LUMO GAP               1.876425166158 eV   |
           -------------------------------------------------

 * finished run on 2025/06/07 at 03:27:42.899
normal termination of xtb
