   * xtb version 6.5.1 (conda-forge) compiled by 'runner@Mac-1657629245115.local' on 2022-07-12
          program call               : xtb B2BeC4H5.xyz --gfn 2 --opt

   ID    Z sym.   atoms
    1    4 Be     1
    2    5 B      2, 3
    3    6 C      4-7
    4    1 H      8-12

          :  Hamiltonian                  GFN2-xTB          :
 * total energy  :   -13.0320648 Eh     change        0.6143047E-08 Eh
 * total energy  :   -13.2564040 Eh     change       -0.2243392E+00 Eh
 * total energy  :   -13.5076974 Eh     change       -0.2512935E+00 Eh
 * total energy  :   -13.6002673 Eh     change       -0.9256991E-01 Eh
 * total energy  :   -13.6231064 Eh     change       -0.2283905E-01 Eh
 * total energy  :   -13.6425243 Eh     change       -0.1941787E-01 Eh
 * total energy  :   -13.6840014 Eh     change       -0.4147717E-01 Eh
 * total energy  :   -13.7103585 Eh     change       -0.2635711E-01 Eh
 * total energy  :   -13.6980198 Eh     change        0.1233874E-01 Eh
 * total energy  :   -13.7422957 Eh     change       -0.4427589E-01 Eh
 * total energy  :   -13.8629201 Eh     change       -0.3089041E-04 Eh
 * total energy  :   -13.8628908 Eh     change        0.2928666E-04 Eh
 * total energy  :   -13.8629369 Eh     change       -0.4609853E-04 Eh
 * total energy  :   -13.8629484 Eh     change       -0.1154113E-04 Eh
 * total energy  :   -13.8629588 Eh     change       -0.1037424E-04 Eh
 * total energy  :   -13.8629668 Eh     change       -0.8066766E-05 Eh
 * total energy  :   -13.8629707 Eh     change       -0.3823192E-05 Eh
 * total energy  :   -13.8629792 Eh     change       -0.8552541E-05 Eh
 * total energy  :   -13.8629817 Eh     change       -0.2492672E-05 Eh
   *** GEOMETRY OPTIMIZATION CONVERGED AFTER 68 ITERATIONS ***

 final structure:
================
12
 xtb: 6.5.1 (conda-forge)
Be           1.15482734065072        1.08625444808166        0.14435684781604
B            2.57798455223018        0.38324508081602        0.75231667795217
B            0.33478145856835        0.84306429692664        1.66486352488844
C            1.84688046536702        0.22709112303395        1.93865423620148
C            0.84556964029975        0.23889998185830        2.91189798152683
C            0.70166366778273       -0.16521588161313        4.21185283616716
C            0.57450716712689       -0.48936963890603        5.37137419550214
H            0.44044546272488       -0.79541516977630        6.36549212744758
H            1.86734046611060        1.57010337876623        6.09060938345437
H            2.25713261726886        2.13462814946272        6.46780455120475
H            0.63415851668083        0.81630475381026        8.58682735376653
H            0.31670864516677        0.33934647763147        9.11345028410058

          :  Hamiltonian                  GFN2-xTB          :
         :: total energy             -13.862981714897 Eh    ::
         :: gradient norm              0.000993036929 Eh/a0 ::
         :: HOMO-LUMO gap              1.748686141372 eV    ::
         :: SCC energy               -14.220771030152 Eh    ::
         :: -> dispersion             -0.006128804259 Eh    ::
         :: repulsion energy           0.357800820082 Eh    ::

    * Orbital Energies and Occupations

         #    Occupation            Energy/Eh            Energy/eV
      -------------------------------------------------------------
         1        2.0000           -0.5722348             -15.5713
       ...           ...                  ...                  ...
         3        2.0000           -0.5135675             -13.9749
         4        2.0000           -0.4664888             -12.6938
         5        2.0000           -0.4571415             -12.4395
         6        2.0000           -0.4480948             -12.1933
         7        2.0000           -0.4368028             -11.8860
         8        2.0000           -0.4261247             -11.5954
         9        2.0000           -0.4113974             -11.1947
        10        2.0000           -0.3782372             -10.2924
        11        2.0000           -0.3599357              -9.7943
        12        2.0000           -0.3389676              -9.2238
        13        2.0000           -0.3275154              -8.9121
        14        2.0000           -0.3024743              -8.2307
        15        1.0000           -0.2620227              -7.1300 (HOMO)
        16                         -0.1977596              -5.3813 (LUMO)
        17                         -0.1922640              -5.2318
        18                         -0.1554199              -4.2292
        19                         -0.1426603              -3.8820
        20                         -0.1170619              -3.1854
        21                         -0.0256026              -0.6967
        22                         -0.0139437              -0.3794
        23                          0.0171959               0.4679
        24                          0.1102498               3.0001
        25                          0.1358452               3.6965
        26                          0.1467290               3.9927
       ...                                ...                  ...
        33                          1.5050403              40.9542
      -------------------------------------------------------------
                  HL-Gap            0.0642630 Eh            1.7487 eV

     #   Z          covCN         q      C6AA      α(0)
     1   4 Be       2.456     0.374    14.947     8.925
     2   5 B        1.834    -0.009    44.896    14.114
     3   5 B        2.714     0.040    20.916     7.667
     4   6 C        3.410    -0.203    28.476     8.209
     5   6 C        2.868    -0.063    29.553     8.911
     6   6 C        1.962    -0.037    32.051     9.143
     7   6 C        1.910    -0.131    34.792     9.526
     8   1 H        0.928     0.036     2.498     2.472
     9   1 H        0.794     0.012     2.920     2.686
    10   1 H        0.794    -0.019     3.482     2.933
    11   1 H        0.809     0.005     3.019     2.728
    12   1 H        0.809    -0.006     3.210     2.813

Wiberg/Mayer (AO) data.
largest (>0.10) Wiberg bond orders for each atom

     #   Z sym  total        # sym  WBO       # sym  WBO       # sym  WBO
 ---------------------------------------------------------------------------
     1   4 Be   2.042 --     2 B    1.004     3 B    0.917     4 C    0.102
     2   5 B    2.980 --     4 C    1.660     1 Be   1.004     3 B    0.255
     3   5 B    3.136 --     5 C    1.161     1 Be   0.917     4 C    0.709
                             2 B    0.255
     4   6 C    3.774 --     2 B    1.660     5 C    1.231     3 B    0.709
                             1 Be   0.102
     5   6 C    3.700 --     6 C    1.241     4 C    1.231     3 B    1.161
     6   6 C    3.975 --     7 C    2.663     5 C    1.241
     7   6 C    3.819 --     6 C    2.663     8 H    0.975
     8   1 H    0.998 --     7 C    0.975
     9   1 H    1.000 --    10 H    0.988
    10   1 H    0.998 --     9 H    0.988
    11   1 H    1.000 --    12 H    0.998
    12   1 H    1.000 --    11 H    0.998
 ---------------------------------------------------------------------------

molecular dipole:
                 x           y           z       tot (Debye)
 q only:       -0.210       0.750      -2.170
   full:       -0.061       0.497      -1.580       4.213

normal termination of xtb

           -------------------------------------------------
          | TOTAL ENERGY              -13.862981714897 Eh   |
          | GRADIENT NORM               0.000993036929 Eh/α |
          | HOMO-LUMO GAP               1.748686141372 eV   |
           -------------------------------------------------

 * finished run on 2025/06/07 at 03:27:42.759
