   * xtb version 6.5.1 (conda-forge) compiled by 'runner@Mac-1657629245115.local' on 2022-07-12
          program call               : xtb B2BeC4H4.xyz --gfn 2 --opt

   ID    Z sym.   atoms
    1    4 Be     1
    2    5 B      2, 3
    3    6 C      4-7
    4    1 H      8-11

          :  Hamiltonian                  GFN2-xTB          :
 * total energy  :   -12.5320127 Eh     change       -0.2463789E-09 Eh
 * total energy  :   -12.7496889 Eh     change       -0.2176762E+00 Eh
 * total energy  :   -12.9758325 Eh     change       -0.2261436E+00 Eh
 * total energy  :   -13.0636729 Eh     change       -0.8784039E-01 Eh
 * total energy  :   -13.0803632 Eh     change       -0.1669024E-01 Eh
 * total energy  :   -13.1009004 Eh     change       -0.2053725E-01 Eh
 * total energy  :   -13.1446738 Eh     change       -0.4377337E-01 Eh
 * total energy  :   -13.1073851 Eh     change        0.3728872E-01 Eh
 * total energy  :   -13.1652295 Eh     change       -0.5784448E-01 Eh
 * total energy  :   -13.1392455 Eh     change        0.2598403E-01 Eh
 * total energy  :   -13.3868264 Eh     change       -0.2654962E-04 Eh
 * total energy  :   -13.3868371 Eh     change       -0.1071530E-04 Eh
 * total energy  :   -13.3868506 Eh     change       -0.1343524E-04 Eh
 * total energy  :   -13.3868606 Eh     change       -0.1000038E-04 Eh
 * total energy  :   -13.3868687 Eh     change       -0.8167623E-05 Eh
 * total energy  :   -13.3868748 Eh     change       -0.6090070E-05 Eh
 * total energy  :   -13.3868838 Eh     change       -0.8989808E-05 Eh
 * total energy  :   -13.3868904 Eh     change       -0.6576409E-05 Eh
 * total energy  :   -13.3868954 Eh     change       -0.4957299E-05 Eh
   *** GEOMETRY OPTIMIZATION CONVERGED AFTER 59 ITERATIONS ***

 final structure:
================
11
 xtb: 6.5.1 (conda-forge)
Be           0.71394230186623        0.05686011254670       -0.79414625387064
B            1.71828659537625        0.73409452843949        0.44498016670818
B            0.20613149337808        0.11407848608447        0.79381087801714
C            1.33308787226684        0.44406354169404        1.82334471698958
C            1.50524358094667        0.38568397027619        3.13037897749820
C            1.59331908300842        0.40677034720795        4.37996719599498
C            1.73009259669558        0.41665169416926        5.69295405436143
H            1.01633936539633       -0.07396816173104        6.33809532522310
H            2.56191688141191        0.90857578842774        6.17544974471706
H            0.10503717590214        1.06143123893903        8.73131590019288
H           -0.16339694624596        0.56175845394951        9.26384929417219

          :  Hamiltonian                  GFN2-xTB          :
         :: total energy             -13.386895354742 Eh    ::
         :: gradient norm              0.000777898319 Eh/a0 ::
         :: HOMO-LUMO gap              0.334951784323 eV    ::
         :: SCC energy               -13.716643437504 Eh    ::
         :: -> dispersion             -0.005153783644 Eh    ::
         :: repulsion energy           0.329775387538 Eh    ::

    * Orbital Energies and Occupations

         #    Occupation            Energy/Eh            Energy/eV
      -------------------------------------------------------------
         1        2.0000           -0.5460454             -14.8587
         2        2.0000           -0.5326200             -14.4933
         3        2.0000           -0.5041998             -13.7200
         4        2.0000           -0.4598828             -12.5140
         5        2.0000           -0.4472577             -12.1705
         6        2.0000           -0.4250058             -11.5650
         7        2.0000           -0.4171216             -11.3505
         8        2.0000           -0.3934245             -10.7056
         9        2.0000           -0.3889932             -10.5850
        10        2.0000           -0.3762134             -10.2373
        11        2.0000           -0.3432359              -9.3399
        12        2.0000           -0.3258358              -8.8664
        13        2.0000           -0.2921563              -7.9500
        14        1.9969           -0.2661319              -7.2418 (HOMO)
        15        0.0031           -0.2538226              -6.9069 (LUMO)
        16                         -0.1898715              -5.1667
        17                         -0.1749184              -4.7598
        18                         -0.1538594              -4.1867
        19                         -0.1112133              -3.0263
        20                         -0.0651030              -1.7715
        21                         -0.0178786              -0.4865
        22                          0.0259549               0.7063
        23                          0.1398664               3.8060
        24                          0.1739907               4.7345
        25                          0.2452529               6.6737
       ...                                ...                  ...
        32                          1.4925430              40.6142
      -------------------------------------------------------------
                  HL-Gap            0.0123093 Eh            0.3350 eV

     #   Z          covCN         q      C6AA      α(0)
     1   4 Be       1.832     0.390    14.909     8.940
     2   5 B        2.772     0.015    21.242     7.708
     3   5 B        2.770     0.016    21.232     7.707
     4   6 C        2.801    -0.127    31.233     9.155
     5   6 C        1.963    -0.100    33.844     9.395
     6   6 C        1.963    -0.061    32.707     9.236
     7   6 C        2.833    -0.124    31.144     9.145
     8   1 H        0.926    -0.004     3.124     2.764
     9   1 H        0.926    -0.005     3.140     2.771
    10   1 H        0.810     0.007     2.980     2.711
    11   1 H        0.810    -0.008     3.244     2.828

Wiberg/Mayer (AO) data.
largest (>0.10) Wiberg bond orders for each atom

     #   Z sym  total        # sym  WBO       # sym  WBO       # sym  WBO
 ---------------------------------------------------------------------------
     1   4 Be   2.189 --     3 B    1.161     2 B    0.914
     2   5 B    3.412 --     4 C    1.281     3 B    0.982     1 Be   0.914
                             6 C    0.107
     3   5 B    3.298 --     1 Be   1.161     2 B    0.982     4 C    0.949
     4   6 C    3.966 --     5 C    1.569     2 B    1.281     3 B    0.949
                             7 C    0.124
     5   6 C    3.967 --     6 C    2.088     4 C    1.569
     6   6 C    3.977 --     5 C    2.088     7 C    1.698     2 B    0.107
     7   6 C    3.904 --     6 C    1.698     9 H    0.958     8 H    0.958
                             4 C    0.124
     8   1 H    0.991 --     7 C    0.958
     9   1 H    0.992 --     7 C    0.958
    10   1 H    1.000 --    11 H    0.999
    11   1 H    1.000 --    10 H    0.999
 ---------------------------------------------------------------------------

molecular dipole:
                 x           y           z       tot (Debye)
 q only:       -0.639      -0.259      -3.525
   full:       -0.569      -0.134      -3.594       9.255

normal termination of xtb

           -------------------------------------------------
          | TOTAL ENERGY              -13.386895354742 Eh   |
          | GRADIENT NORM               0.000777898319 Eh/α |
          | HOMO-LUMO GAP               0.334951784323 eV   |
           -------------------------------------------------

 * finished run on 2025/06/07 at 03:27:42.457
