   * xtb version 6.5.1 (conda-forge) compiled by 'runner@Mac-1657629245115.local' on 2022-07-12
          program call               : xtb B2BeC2H3.xyz --gfn 2 --opt

   ID    Z sym.   atoms
    1    4 Be     1
    2    5 B      2, 3
    3    6 C      4, 5
    4    1 H      6-8

          :  Hamiltonian                  GFN2-xTB          :
 * total energy  :    -8.1479009 Eh     change        0.3167964E-08 Eh
 * total energy  :    -8.3062658 Eh     change       -0.1583648E+00 Eh
 * total energy  :    -8.4419559 Eh     change       -0.1356901E+00 Eh
 * total energy  :    -8.5119485 Eh     change       -0.6999260E-01 Eh
 * total energy  :    -8.5348928 Eh     change       -0.2294430E-01 Eh
 * total energy  :    -8.5552324 Eh     change       -0.2033957E-01 Eh
 * total energy  :    -8.5543121 Eh     change        0.9203134E-03 Eh
 * total energy  :    -8.5641179 Eh     change       -0.9805803E-02 Eh
 * total energy  :    -8.5683114 Eh     change       -0.4193556E-02 Eh
 * total energy  :    -8.5785208 Eh     change       -0.1020940E-01 Eh
 * total energy  :    -8.6511319 Eh     change       -0.4361969E-04 Eh
 * total energy  :    -8.6511976 Eh     change       -0.6563781E-04 Eh
 * total energy  :    -8.6508144 Eh     change        0.3831362E-03 Eh
 * total energy  :    -8.6512768 Eh     change       -0.4623664E-03 Eh
 * total energy  :    -8.6512999 Eh     change       -0.2312844E-04 Eh
 * total energy  :    -8.6513159 Eh     change       -0.1590862E-04 Eh
 * total energy  :    -8.6513271 Eh     change       -0.1128197E-04 Eh
 * total energy  :    -8.6513349 Eh     change       -0.7746550E-05 Eh
 * total energy  :    -8.6513391 Eh     change       -0.4182197E-05 Eh
   *** GEOMETRY OPTIMIZATION CONVERGED AFTER 39 ITERATIONS ***

 final structure:
================
8
 xtb: 6.5.1 (conda-forge)
Be           0.22964005533300       -0.03272102354443        0.69105460970564
B            1.87716146389290       -0.03693318493858        1.28049383547510
B           -0.43802547985753       -0.03322898878171        2.25162000986552
C            2.29008043076822       -0.03751168573838        2.67588098074400
C            0.90421599604198       -0.03526347160144        2.66980326973257
H            3.02362627300057       -0.03532289324172        3.45781552261827
H            0.38350238339470        0.51866382301917        5.74655204512894
H            0.35379887742598        0.39726242482733        4.97027972673011

          :  Hamiltonian                  GFN2-xTB          :
         :: total energy              -8.651339062895 Eh    ::
         :: gradient norm              0.000484849791 Eh/a0 ::
         :: HOMO-LUMO gap              1.774095959697 eV    ::
         :: SCC energy                -8.833312638957 Eh    ::
         :: -> dispersion             -0.003629462014 Eh    ::
         :: repulsion energy           0.181972089141 Eh    ::

    * Orbital Energies and Occupations

         #    Occupation            Energy/Eh            Energy/eV
      -------------------------------------------------------------
         1        2.0000           -0.5434151             -14.7871
         2        2.0000           -0.4779530             -13.0058
         3        2.0000           -0.4454233             -12.1206
         4        2.0000           -0.4234022             -11.5214
         5        2.0000           -0.3981166             -10.8333
         6        2.0000           -0.3711398             -10.0992
         7        2.0000           -0.3385705              -9.2130
         8        2.0000           -0.3160040              -8.5989
         9        2.0000           -0.2870203              -7.8102
        10        1.0000           -0.2484005              -6.7593 (HOMO)
        11                         -0.1832036              -4.9852 (LUMO)
        12                         -0.1803532              -4.9077
        13                         -0.1394353              -3.7942
        14                         -0.0783372              -2.1317
        15                         -0.0061349              -0.1669
        16                         -0.0025544              -0.0695
        17                          0.1509831               4.1085
        18                          0.1839450               5.0054
        19                          0.3420945               9.3089
        20                          0.3925668              10.6823
        21                          0.6182662              16.8239
       ...                                ...                  ...
        23                          1.3835774              37.6491
      -------------------------------------------------------------
                  HL-Gap            0.0651968 Eh            1.7741 eV

     #   Z          covCN         q      C6AA      α(0)
     1   4 Be       2.476     0.369    14.998     8.940
     2   5 B        2.692     0.031    21.147     7.720
     3   5 B        1.826    -0.023    45.430    14.198
     4   6 C        2.815    -0.134    31.409     9.182
     5   6 C        3.414    -0.203    28.368     8.180
     6   1 H        0.926    -0.023     3.497     2.924
     7   1 H        0.782    -0.031     3.738     3.042
     8   1 H        0.782     0.014     2.898     2.678

Wiberg/Mayer (AO) data.
largest (>0.10) Wiberg bond orders for each atom

     #   Z sym  total        # sym  WBO       # sym  WBO       # sym  WBO
 ---------------------------------------------------------------------------
     1   4 Be   2.037 --     3 B    1.003     2 B    0.920     5 C    0.100
     2   5 B    3.132 --     4 C    1.327     1 Be   0.920     5 C    0.635
                             3 B    0.239
     3   5 B    2.942 --     5 C    1.647     1 Be   1.003     2 B    0.239
     4   6 C    3.670 --     5 C    1.337     2 B    1.327     6 H    0.969
     5   6 C    3.743 --     3 B    1.647     4 C    1.337     2 B    0.635
                             1 Be   0.100
     6   1 H    0.999 --     4 C    0.969
     7   1 H    0.999 --     8 H    0.980
     8   1 H    1.000 --     7 H    0.980
 ---------------------------------------------------------------------------

molecular dipole:
                 x           y           z       tot (Debye)
 q only:       -0.785      -0.019      -1.597
   full:       -0.501      -0.017      -1.000       2.842

normal termination of xtb

           -------------------------------------------------
          | TOTAL ENERGY               -8.651339062895 Eh   |
          | GRADIENT NORM               0.000484849791 Eh/α |
          | HOMO-LUMO GAP               1.774095959697 eV   |
           -------------------------------------------------

 * finished run on 2025/06/07 at 03:27:40.791
