   * xtb version 6.5.1 (conda-forge) compiled by 'runner@Mac-1657629245115.local' on 2022-07-12
          program call               : xtb B2BeC3H5.xyz --gfn 2 --opt

   ID    Z sym.   atoms
    1    4 Be     1
    2    5 B      2, 3
    3    6 C      4-6
    4    1 H      7-11

          :  Hamiltonian                  GFN2-xTB          :
 * total energy  :   -11.0793349 Eh     change       -0.1285706E-08 Eh
 * total energy  :   -11.2682936 Eh     change       -0.1889587E+00 Eh
 * total energy  :   -11.4456237 Eh     change       -0.1773302E+00 Eh
 * total energy  :   -11.5143937 Eh     change       -0.6876994E-01 Eh
 * total energy  :   -11.5667972 Eh     change       -0.5240352E-01 Eh
 * total energy  :   -11.5979129 Eh     change       -0.3111573E-01 Eh
 * total energy  :   -11.6257793 Eh     change       -0.2786635E-01 Eh
 * total energy  :   -11.6492953 Eh     change       -0.2351606E-01 Eh
 * total energy  :   -11.6601651 Eh     change       -0.1086979E-01 Eh
 * total energy  :   -11.6696146 Eh     change       -0.9449428E-02 Eh
 * total energy  :   -11.7283975 Eh     change       -0.4634613E-03 Eh
 * total energy  :   -11.7288893 Eh     change       -0.4917917E-03 Eh
 * total energy  :   -11.7290593 Eh     change       -0.1700136E-03 Eh
 * total energy  :   -11.7290929 Eh     change       -0.3355785E-04 Eh
 * total energy  :   -11.7291205 Eh     change       -0.2762541E-04 Eh
 * total energy  :   -11.7291371 Eh     change       -0.1659334E-04 Eh
 * total energy  :   -11.7291455 Eh     change       -0.8473653E-05 Eh
 * total energy  :   -11.7291531 Eh     change       -0.7543324E-05 Eh
 * total energy  :   -11.7291574 Eh     change       -0.4310054E-05 Eh
   *** GEOMETRY OPTIMIZATION CONVERGED AFTER 75 ITERATIONS ***

 final structure:
================
11
 xtb: 6.5.1 (conda-forge)
Be           0.74102920739727       -0.25096241697055        0.18786431173792
B            1.93925690495043        0.87578458673259        0.62045063772976
B            0.50216124707881       -0.42037990634156        1.88955262082627
C            1.67014340869302        0.66755224188266        1.97244758311391
C            1.11823945011616        0.19156594473757        3.17007935475817
C            1.17081373643065        0.28285378730687        4.48073242134438
H            0.53914616517902       -0.28310878886678        5.14602893693673
H            1.89971197832930        0.97475361220078        4.99281208096410
H            2.80459938948214        1.84407065752476        5.68457187794559
H            0.18872839872902        0.47672279561398        7.78024187785013
H           -0.25382988638641       -0.09086851378950        8.07521829672190

          :  Hamiltonian                  GFN2-xTB          :
         :: total energy             -11.729157397740 Eh    ::
         :: gradient norm              0.000637251582 Eh/a0 ::
         :: HOMO-LUMO gap              1.880356390018 eV    ::
         :: SCC energy               -11.972448525819 Eh    ::
         :: -> dispersion             -0.005858961004 Eh    ::
         :: repulsion energy           0.243304384501 Eh    ::

    * Orbital Energies and Occupations

         #    Occupation            Energy/Eh            Energy/eV
      -------------------------------------------------------------
         1        2.0000           -0.5827298             -15.8569
         2        2.0000           -0.5520187             -15.0212
         3        2.0000           -0.4888680             -13.3028
         4        2.0000           -0.4643218             -12.6348
         5        2.0000           -0.4514549             -12.2847
         6        2.0000           -0.4441951             -12.0872
         7        2.0000           -0.4172455             -11.3538
         8        2.0000           -0.4147075             -11.2848
         9        2.0000           -0.3617543              -9.8438
        10        2.0000           -0.3462719              -9.4225
        11        2.0000           -0.3312026              -9.0125
        12        2.0000           -0.3255888              -8.8597
        13        1.0000           -0.3020788              -8.2200 (HOMO)
        14                         -0.2329769              -6.3396 (LUMO)
        15                         -0.2056461              -5.5959
        16                         -0.2047225              -5.5708
        17                         -0.1680901              -4.5740
        18                         -0.0809236              -2.2020
        19                         -0.0294077              -0.8002
        20                         -0.0246248              -0.6701
        21                          0.1347785               3.6675
        22                          0.1548092               4.2126
        23                          0.2708246               7.3695
        24                          0.2903581               7.9010
       ...                                ...                  ...
        29                          1.4405162              39.1984
      -------------------------------------------------------------
                  HL-Gap            0.0691018 Eh            1.8804 eV

     #   Z          covCN         q      C6AA      α(0)
     1   4 Be       2.306     0.379    14.893     8.909
     2   5 B        1.905     0.020    43.629    13.904
     3   5 B        2.794     0.059    20.457     7.559
     4   6 C        3.272    -0.195    31.572     9.057
     5   6 C        2.863    -0.040    28.985     8.825
     6   6 C        2.826    -0.110    30.776     9.090
     7   1 H        0.926     0.016     2.801     2.617
     8   1 H        0.918     0.082     1.962     2.191
     9   1 H        0.000    -0.210    28.968     9.841
    10   1 H        0.810     0.009     2.949     2.697
    11   1 H        0.810    -0.009     3.272     2.841

Wiberg/Mayer (AO) data.
largest (>0.10) Wiberg bond orders for each atom

     #   Z sym  total        # sym  WBO       # sym  WBO       # sym  WBO
 ---------------------------------------------------------------------------
     1   4 Be   2.109 --     2 B    0.997     3 B    0.931     4 C    0.110
     2   5 B    3.297 --     4 C    1.712     1 Be   0.997     3 B    0.373
                             6 C    0.176
     3   5 B    3.069 --     1 Be   0.931     5 C    0.893     4 C    0.828
                             2 B    0.373
     4   6 C    3.884 --     2 B    1.712     5 C    1.162     3 B    0.828
                             1 Be   0.110
     5   6 C    3.942 --     6 C    1.807     4 C    1.162     3 B    0.893
     6   6 C    3.821 --     5 C    1.807     7 H    0.960     8 H    0.770
                             2 B    0.176
     7   1 H    0.990 --     6 C    0.960
     8   1 H    0.982 --     6 C    0.770     9 H    0.192
     9   1 H    0.282 --     8 H    0.192
    10   1 H    1.000 --    11 H    0.999
    11   1 H    1.000 --    10 H    0.999
 ---------------------------------------------------------------------------

molecular dipole:
                 x           y           z       tot (Debye)
 q only:       -1.083      -1.095      -2.868
   full:       -0.949      -0.959      -2.479       7.173

normal termination of xtb

           -------------------------------------------------
          | TOTAL ENERGY              -11.729157397740 Eh   |
          | GRADIENT NORM               0.000637251582 Eh/α |
          | HOMO-LUMO GAP               1.880356390018 eV   |
           -------------------------------------------------

 * finished run on 2025/06/07 at 03:27:41.826
