   * xtb version 6.5.1 (conda-forge) compiled by 'runner@Mac-1657629245115.local' on 2022-07-12
          program call               : xtb B2BeH6.xyz --gfn 2 --opt

   ID    Z sym.   atoms
    1    4 Be     1
    2    5 B      2, 3
    3    1 H      4-9

          :  Hamiltonian                  GFN2-xTB          :
 * total energy  :    -5.5150954 Eh     change       -0.1622089E-09 Eh
 * total energy  :    -5.6547424 Eh     change       -0.1396470E+00 Eh
 * total energy  :    -5.7094953 Eh     change       -0.5475294E-01 Eh
 * total energy  :    -5.7428209 Eh     change       -0.3332560E-01 Eh
 * total energy  :    -5.7678270 Eh     change       -0.2500603E-01 Eh
 * total energy  :    -5.7996290 Eh     change       -0.3180200E-01 Eh
 * total energy  :    -5.8366498 Eh     change       -0.3702084E-01 Eh
 * total energy  :    -5.8750697 Eh     change       -0.3841993E-01 Eh
 * total energy  :    -5.9173540 Eh     change       -0.4228429E-01 Eh
 * total energy  :    -5.9028918 Eh     change        0.1446220E-01 Eh
 * total energy  :    -5.9757744 Eh     change       -0.1736669E-03 Eh
 * total energy  :    -5.9758059 Eh     change       -0.3150993E-04 Eh
 * total energy  :    -5.9758604 Eh     change       -0.5446750E-04 Eh
 * total energy  :    -5.9759143 Eh     change       -0.5391207E-04 Eh
 * total energy  :    -5.9759347 Eh     change       -0.2044310E-04 Eh
 * total energy  :    -5.9759408 Eh     change       -0.6039046E-05 Eh
 * total energy  :    -5.9759504 Eh     change       -0.9664932E-05 Eh
 * total energy  :    -5.9759606 Eh     change       -0.1012731E-04 Eh
 * total energy  :    -5.9759653 Eh     change       -0.4709016E-05 Eh
   *** GEOMETRY OPTIMIZATION CONVERGED AFTER 48 ITERATIONS ***

 final structure:
================
9
 xtb: 6.5.1 (conda-forge)
Be           0.71678986049881        0.21026143035759        0.23478807580492
B            1.96975220178171        0.50713733120685        1.42320748075301
B            0.92065181551503       -0.46203544513515        1.83754212190877
H            0.16360147713360       -1.21676072619092        2.31715213659411
H            2.87321406018450        1.22481566335507        1.21801829513398
H            1.33858000323265        2.03684993763283        3.38529778815815
H            1.30449779791669        2.56803928307360        3.96974083799680
H            0.42874649667907       -0.18964061048250        4.91008466663995
H            0.14016628705821       -0.44899886381680        5.58616859700896

          :  Hamiltonian                  GFN2-xTB          :
         :: total energy              -5.975965260129 Eh    ::
         :: gradient norm              0.000346545239 Eh/a0 ::
         :: HOMO-LUMO gap              2.060183595362 eV    ::
         :: SCC energy                -6.108777621420 Eh    ::
         :: -> dispersion             -0.002495864974 Eh    ::
         :: repulsion energy           0.132808338507 Eh    ::

    * Orbital Energies and Occupations

         #    Occupation            Energy/Eh            Energy/eV
      -------------------------------------------------------------
         1        2.0000           -0.4458408             -12.1319
         2        2.0000           -0.4376920             -11.9102
         3        2.0000           -0.4195311             -11.4160
         4        2.0000           -0.3997817             -10.8786
         5        2.0000           -0.3525212              -9.5926
         6        2.0000           -0.2894421              -7.8761
         7        2.0000           -0.2686660              -7.3108 (HOMO)
         8                         -0.1929557              -5.2506 (LUMO)
         9                         -0.1898376              -5.1657
        10                         -0.1044388              -2.8419
        11                         -0.0698617              -1.9010
        12                          0.0733258               1.9953
        13                          0.1406373               3.8269
        14                          0.1650159               4.4903
        15                          0.3491192               9.5000
        16                          0.3605156               9.8101
        17                          0.9060556              24.6550
        18                          1.1912015              32.4142
      -------------------------------------------------------------
                  HL-Gap            0.0757104 Eh            2.0602 eV

     #   Z          covCN         q      C6AA      α(0)
     1   4 Be       1.814     0.356    15.298     9.061
     2   5 B        2.824    -0.022    21.843     7.807
     3   5 B        2.825    -0.024    21.883     7.814
     4   1 H        0.938    -0.144     7.382     4.248
     5   1 H        0.938    -0.145     7.428     4.261
     6   1 H        0.768     0.012     2.951     2.706
     7   1 H        0.768    -0.031     3.755     3.053
     8   1 H        0.805     0.014     2.869     2.660
     9   1 H        0.805    -0.017     3.429     2.909

Wiberg/Mayer (AO) data.
largest (>0.10) Wiberg bond orders for each atom

     #   Z sym  total        # sym  WBO       # sym  WBO       # sym  WBO
 ---------------------------------------------------------------------------
     1   4 Be   2.136 --     3 B    1.029     2 B    1.024
     2   5 B    3.674 --     3 B    1.694     1 Be   1.024     5 H    0.925
     3   5 B    3.678 --     2 B    1.694     1 Be   1.029     4 H    0.925
     4   1 H    0.979 --     3 B    0.925
     5   1 H    0.979 --     2 B    0.925
     6   1 H    1.000 --     7 H    0.976
     7   1 H    0.999 --     6 H    0.976
     8   1 H    1.000 --     9 H    0.996
     9   1 H    0.999 --     8 H    0.996
 ---------------------------------------------------------------------------

molecular dipole:
                 x           y           z       tot (Debye)
 q only:       -0.511       0.043      -1.149
   full:       -0.786       0.123      -1.703       4.777

           -------------------------------------------------
          | TOTAL ENERGY               -5.975965260129 Eh   |
          | GRADIENT NORM               0.000346545239 Eh/α |
          | HOMO-LUMO GAP               2.060183595362 eV   |
           -------------------------------------------------

 * finished run on 2025/06/07 at 03:27:43.176
normal termination of xtb
