   * xtb version 6.5.1 (conda-forge) compiled by 'runner@Mac-1657629245115.local' on 2022-07-12
          program call               : xtb B2BeC3H4.xyz --gfn 2 --opt

   ID    Z sym.   atoms
    1    4 Be     1
    2    5 B      2, 3
    3    6 C      4-6
    4    1 H      7-10

          :  Hamiltonian                  GFN2-xTB          :
 * total energy  :   -10.5652904 Eh     change       -0.3157242E-08 Eh
 * total energy  :   -10.7512675 Eh     change       -0.1859772E+00 Eh
 * total energy  :   -10.9086035 Eh     change       -0.1573359E+00 Eh
 * total energy  :   -10.9794328 Eh     change       -0.7082937E-01 Eh
 * total energy  :   -11.0231092 Eh     change       -0.4367634E-01 Eh
 * total energy  :   -11.0453454 Eh     change       -0.2223628E-01 Eh
 * total energy  :   -11.0850485 Eh     change       -0.3970309E-01 Eh
 * total energy  :   -11.0987602 Eh     change       -0.1371169E-01 Eh
 * total energy  :   -11.1278219 Eh     change       -0.2906166E-01 Eh
 * total energy  :   -11.1290392 Eh     change       -0.1217306E-02 Eh
 * total energy  :   -11.3197060 Eh     change       -0.4509214E-04 Eh
 * total energy  :   -11.3197364 Eh     change       -0.3046621E-04 Eh
 * total energy  :   -11.3197650 Eh     change       -0.2856604E-04 Eh
 * total energy  :   -11.3197754 Eh     change       -0.1040671E-04 Eh
 * total energy  :   -11.3197881 Eh     change       -0.1264480E-04 Eh
 * total energy  :   -11.3197964 Eh     change       -0.8343754E-05 Eh
 * total energy  :   -11.3198043 Eh     change       -0.7903863E-05 Eh
 * total energy  :   -11.3198097 Eh     change       -0.5345810E-05 Eh
 * total energy  :   -11.3198131 Eh     change       -0.3492370E-05 Eh
   *** GEOMETRY OPTIMIZATION CONVERGED AFTER 38 ITERATIONS ***

 final structure:
================
10
 xtb: 6.5.1 (conda-forge)
Be           0.54980054620103        0.02762134869586        0.10402632272198
B            2.09561908228459        0.62722893626596        0.47969318245700
B            0.31121217570586       -0.14676207253722        1.80317365693809
C            1.81101592976680        0.44777666232600        1.83156455023184
C            1.16186976699681        0.12725819474887        3.03999381260995
C            1.36908895183437        0.14026233668655        4.35205373249017
H            0.61258139105262       -0.20095176957754        5.04305925189723
H            2.29631373748889        0.48502870372756        4.78873124724573
H            0.50497195961599        1.01143706531862        7.56707559680702
H            0.37552645905354        0.57614759434492        8.19812864660134

          :  Hamiltonian                  GFN2-xTB          :
         :: total energy             -11.319813143672 Eh    ::
         :: gradient norm              0.000685408454 Eh/a0 ::
         :: HOMO-LUMO gap              2.388798469486 eV    ::
         :: SCC energy               -11.563289213797 Eh    ::
         :: -> dispersion             -0.004803606029 Eh    ::
         :: repulsion energy           0.243491570234 Eh    ::

    * Orbital Energies and Occupations

         #    Occupation            Energy/Eh            Energy/eV
      -------------------------------------------------------------
         1        2.0000           -0.5604421             -15.2504
         2        2.0000           -0.5305315             -14.4365
         3        2.0000           -0.4696581             -12.7800
         4        2.0000           -0.4531553             -12.3310
         5        2.0000           -0.4446674             -12.1000
         6        2.0000           -0.4235029             -11.5241
         7        2.0000           -0.3937112             -10.7134
         8        2.0000           -0.3915375             -10.6543
         9        2.0000           -0.3354863              -9.1290
        10        2.0000           -0.3228911              -8.7863
        11        2.0000           -0.3087443              -8.4014
        12        2.0000           -0.3007996              -8.1852 (HOMO)
        13                         -0.2130129              -5.7964 (LUMO)
        14                         -0.1843295              -5.0159
        15                         -0.1816459              -4.9428
        16                         -0.1451463              -3.9496
        17                         -0.0590637              -1.6072
        18                         -0.0071153              -0.1936
        19                         -0.0045988              -0.1251
        20                          0.1333550               3.6288
        21                          0.1696076               4.6153
        22                          0.2592147               7.0536
        23                          0.3116981               8.4817
       ...                                ...                  ...
        28                          1.4583891              39.6848
      -------------------------------------------------------------
                  HL-Gap            0.0877867 Eh            2.3888 eV

     #   Z          covCN         q      C6AA      α(0)
     1   4 Be       2.355     0.370    14.989     8.938
     2   5 B        1.877    -0.002    44.499    14.047
     3   5 B        2.766     0.042    20.784     7.626
     4   6 C        3.318    -0.216    31.195     8.896
     5   6 C        2.865    -0.058    29.434     8.893
     6   6 C        2.833    -0.119    31.015     9.126
     7   1 H        0.926    -0.010     3.234     2.812
     8   1 H        0.925    -0.007     3.191     2.793
     9   1 H        0.811     0.006     3.007     2.723
    10   1 H        0.811    -0.006     3.213     2.815

Wiberg/Mayer (AO) data.
largest (>0.10) Wiberg bond orders for each atom

     #   Z sym  total        # sym  WBO       # sym  WBO       # sym  WBO
 ---------------------------------------------------------------------------
     1   4 Be   2.120 --     2 B    0.997     3 B    0.938     4 C    0.115
     2   5 B    3.338 --     4 C    1.746     1 Be   0.997     3 B    0.380
                             6 C    0.180
     3   5 B    3.143 --     5 C    0.990     1 Be   0.938     4 C    0.806
                             2 B    0.380
     4   6 C    3.891 --     2 B    1.746     5 C    1.159     3 B    0.806
                             1 Be   0.115
     5   6 C    3.962 --     6 C    1.759     4 C    1.159     3 B    0.990
     6   6 C    3.976 --     5 C    1.759     7 H    0.973     8 H    0.970
                             2 B    0.180
     7   1 H    1.000 --     6 C    0.973
     8   1 H    1.000 --     6 C    0.970
     9   1 H    1.000 --    10 H    0.999
    10   1 H    1.000 --     9 H    0.999
 ---------------------------------------------------------------------------

molecular dipole:
                 x           y           z       tot (Debye)
 q only:       -0.814      -0.221      -2.015
   full:       -0.567      -0.150      -1.591       4.311

normal termination of xtb

           -------------------------------------------------
          | TOTAL ENERGY              -11.319813143672 Eh   |
          | GRADIENT NORM               0.000685408454 Eh/α |
          | HOMO-LUMO GAP               2.388798469486 eV   |
           -------------------------------------------------

 * finished run on 2025/06/07 at 03:27:41.439
