   * xtb version 6.5.1 (conda-forge) compiled by 'runner@Mac-1657629245115.local' on 2022-07-12
          program call               : xtb B2BeC2H5.xyz --gfn 2 --opt

   ID    Z sym.   atoms
    1    4 Be     1
    2    5 B      2, 3
    3    6 C      4, 5
    4    1 H      6-10

          :  Hamiltonian                  GFN2-xTB          :
 * total energy  :    -9.1395420 Eh     change        0.8456400E-09 Eh
 * total energy  :    -9.3106799 Eh     change       -0.1711380E+00 Eh
 * total energy  :    -9.4024239 Eh     change       -0.9174395E-01 Eh
 * total energy  :    -9.4726359 Eh     change       -0.7021200E-01 Eh
 * total energy  :    -9.5120830 Eh     change       -0.3944713E-01 Eh
 * total energy  :    -9.5554982 Eh     change       -0.4341519E-01 Eh
 * total energy  :    -9.5797729 Eh     change       -0.2427470E-01 Eh
 * total energy  :    -9.5989190 Eh     change       -0.1914606E-01 Eh
 * total energy  :    -9.6211631 Eh     change       -0.2224417E-01 Eh
 * total energy  :    -9.6257934 Eh     change       -0.4630273E-02 Eh
 * total energy  :    -9.6377291 Eh     change       -0.7204040E-05 Eh
 * total energy  :    -9.6377391 Eh     change       -0.1005302E-04 Eh
 * total energy  :    -9.6377547 Eh     change       -0.1554302E-04 Eh
 * total energy  :    -9.6377743 Eh     change       -0.1957598E-04 Eh
 * total energy  :    -9.6377840 Eh     change       -0.9761579E-05 Eh
 * total energy  :    -9.6377937 Eh     change       -0.9688226E-05 Eh
 * total energy  :    -9.6378063 Eh     change       -0.1258227E-04 Eh
 * total energy  :    -9.6378187 Eh     change       -0.1245972E-04 Eh
 * total energy  :    -9.6378223 Eh     change       -0.3519125E-05 Eh
   *** GEOMETRY OPTIMIZATION CONVERGED AFTER 130 ITERATIONS ***

 final structure:
================
10
 xtb: 6.5.1 (conda-forge)
Be          -0.01521124420532        0.70273051058085        1.84331365757010
B            0.88587440401338        0.99396607303925        3.26550671655742
B            0.39107645863252       -0.99635583689321        1.76807649078552
C            1.17636240663328       -0.37915337601904        3.13739205090748
C            1.23585168672326       -1.69786832703681        2.72271969221061
H            1.72721744861687       -2.56962104631065        3.10606955754785
H            2.59735810858518        2.04707930082650        3.87173706554369
H            3.26968534701459        2.40162344218570        4.17196182190598
H            0.02620968204530        1.13143670941947        5.28370401200134
H           -0.20642429870680        1.16709955162563        6.05701893428069

          :  Hamiltonian                  GFN2-xTB          :
         :: total energy              -9.637822264020 Eh    ::
         :: gradient norm              0.000790406871 Eh/a0 ::
         :: HOMO-LUMO gap              1.656157335269 eV    ::
         :: SCC energy                -9.841281537795 Eh    ::
         :: -> dispersion             -0.004383713907 Eh    ::
         :: repulsion energy           0.203450947376 Eh    ::

    * Orbital Energies and Occupations

         #    Occupation            Energy/Eh            Energy/eV
      -------------------------------------------------------------
         1        2.0000           -0.5491704             -14.9437
         2        2.0000           -0.4842098             -13.1760
         3        2.0000           -0.4538251             -12.3492
         4        2.0000           -0.4459750             -12.1356
         5        2.0000           -0.4299595             -11.6998
         6        2.0000           -0.4043918             -11.0041
         7        2.0000           -0.3767017             -10.2506
         8        2.0000           -0.3439451              -9.3592
         9        2.0000           -0.3217927              -8.7564
        10        2.0000           -0.2916755              -7.9369
        11        1.0000           -0.2541245              -6.9151 (HOMO)
        12                         -0.1932618              -5.2589 (LUMO)
        13                         -0.1892627              -5.1501
        14                         -0.1481154              -4.0304
        15                         -0.0883633              -2.4045
        16                         -0.0237264              -0.6456
        17                         -0.0029096              -0.0792
        18                          0.1623833               4.4187
        19                          0.1741481               4.7388
        20                          0.1830403               4.9808
        21                          0.3291078               8.9555
        22                          0.3890337              10.5861
       ...                                ...                  ...
        25                          1.3473822              36.6641
      -------------------------------------------------------------
                  HL-Gap            0.0608627 Eh            1.6562 eV

     #   Z          covCN         q      C6AA      α(0)
     1   4 Be       2.504     0.375    14.933     8.921
     2   5 B        1.823    -0.004    44.737    14.090
     3   5 B        2.690     0.035    21.075     7.709
     4   6 C        3.443    -0.202    27.614     7.972
     5   6 C        2.815    -0.131    31.339     9.172
     6   1 H        0.926    -0.019     3.401     2.884
     7   1 H        0.660     0.007     3.264     2.896
     8   1 H        0.660    -0.034     4.127     3.257
     9   1 H        0.698     0.003     3.212     2.849
    10   1 H        0.698    -0.030     3.896     3.138

Wiberg/Mayer (AO) data.
largest (>0.10) Wiberg bond orders for each atom

     #   Z sym  total        # sym  WBO       # sym  WBO       # sym  WBO
 ---------------------------------------------------------------------------
     1   4 Be   2.045 --     2 B    0.962     3 B    0.928     4 C    0.109
     2   5 B    2.980 --     4 C    1.610     1 Be   0.962     3 B    0.225
     3   5 B    3.137 --     5 C    1.326     1 Be   0.928     4 C    0.636
                             2 B    0.225
     4   6 C    3.746 --     2 B    1.610     5 C    1.347     3 B    0.636
                             1 Be   0.109
     5   6 C    3.680 --     4 C    1.347     3 B    1.326     6 H    0.969
     6   1 H    0.999 --     5 C    0.969
     7   1 H    0.999 --     8 H    0.923
     8   1 H    0.984 --     7 H    0.923
     9   1 H    0.999 --    10 H    0.939
    10   1 H    0.980 --     9 H    0.939
 ---------------------------------------------------------------------------

molecular dipole:
                 x           y           z       tot (Debye)
 q only:       -0.974       0.891      -1.117
   full:       -0.571       0.524      -0.683       2.625

normal termination of xtb

           -------------------------------------------------
          | TOTAL ENERGY               -9.637822264020 Eh   |
          | GRADIENT NORM               0.000790406871 Eh/α |
          | HOMO-LUMO GAP               1.656157335269 eV   |
           -------------------------------------------------

 * finished run on 2025/06/07 at 03:27:41.282
