   * xtb version 6.5.1 (conda-forge) compiled by 'runner@Mac-1657629245115.local' on 2022-07-12
          program call               : xtb B2BeC3H6.xyz --gfn 2 --opt

   ID    Z sym.   atoms
    1    4 Be     1
    2    5 B      2, 3
    3    6 C      4-6
    4    1 H      7-12

          :  Hamiltonian                  GFN2-xTB          :
 * total energy  :   -11.6016533 Eh     change        0.6865495E-08 Eh
 * total energy  :   -11.7850652 Eh     change       -0.1834119E+00 Eh
 * total energy  :   -11.9483018 Eh     change       -0.1632366E+00 Eh
 * total energy  :   -12.0103231 Eh     change       -0.6202131E-01 Eh
 * total energy  :   -12.0411244 Eh     change       -0.3080131E-01 Eh
 * total energy  :   -12.0751569 Eh     change       -0.3403251E-01 Eh
 * total energy  :   -12.0766770 Eh     change       -0.1520052E-02 Eh
 * total energy  :   -12.0634263 Eh     change        0.1325067E-01 Eh
 * total energy  :   -12.0859642 Eh     change       -0.2253790E-01 Eh
 * total energy  :   -12.1053396 Eh     change       -0.1937533E-01 Eh
 * total energy  :   -12.1639898 Eh     change       -0.7673616E-04 Eh
 * total energy  :   -12.1640574 Eh     change       -0.6767126E-04 Eh
 * total energy  :   -12.1641152 Eh     change       -0.5780276E-04 Eh
 * total energy  :   -12.1640825 Eh     change        0.3271091E-04 Eh
 * total energy  :   -12.1641576 Eh     change       -0.7503459E-04 Eh
 * total energy  :   -12.1641665 Eh     change       -0.8896258E-05 Eh
 * total energy  :   -12.1641783 Eh     change       -0.1185420E-04 Eh
 * total energy  :   -12.1641842 Eh     change       -0.5839772E-05 Eh
 * total energy  :   -12.1641886 Eh     change       -0.4420801E-05 Eh
   *** GEOMETRY OPTIMIZATION CONVERGED AFTER 76 ITERATIONS ***

 final structure:
================
12
 xtb: 6.5.1 (conda-forge)
Be           0.39200495688069        0.64445155071390        0.50083014793481
B            1.64894968878861       -0.47589850222311        0.77887518674670
B            0.46404475664686        1.04639595998178        2.18310044975372
C            1.57583158058679       -0.03810943289511        2.09904572291963
C            1.33366136640861        0.54935631281125        3.38391264595222
C            1.58175794986298        0.66067584468849        4.63874843465184
H            2.65319388816374       -0.20332589529870        5.22000292597411
H            3.31227151763062       -0.79877519991835        5.34048899849925
H            0.64811096869788        1.78763674354547        5.47929262744107
H            0.10925494217000        2.38202224501747        5.80439641247347
H            0.01084089869935        0.29953516535758        7.58468495514469
H           -0.17792251453406       -0.15724979178432        8.18612149249200

          :  Hamiltonian                  GFN2-xTB          :
         :: total energy             -12.164188571216 Eh    ::
         :: gradient norm              0.000868633750 Eh/a0 ::
         :: HOMO-LUMO gap              1.842560069588 eV    ::
         :: SCC energy               -12.421048784989 Eh    ::
         :: -> dispersion             -0.006583152860 Eh    ::
         :: repulsion energy           0.256857563149 Eh    ::

    * Orbital Energies and Occupations

         #    Occupation            Energy/Eh            Energy/eV
      -------------------------------------------------------------
         1        2.0000           -0.5734496             -15.6044
         2        2.0000           -0.5445471             -14.8179
         3        2.0000           -0.4764407             -12.9646
         4        2.0000           -0.4550998             -12.3839
         5        2.0000           -0.4437470             -12.0750
         6        2.0000           -0.4347554             -11.8303
         7        2.0000           -0.4202101             -11.4345
         8        2.0000           -0.4063915             -11.0585
         9        2.0000           -0.3648654              -9.9285
        10        2.0000           -0.3467420              -9.4353
        11        2.0000           -0.3346553              -9.1064
        12        2.0000           -0.3240892              -8.8189
        13        2.0000           -0.3116037              -8.4792 (HOMO)
        14                         -0.2438908              -6.6366 (LUMO)
        15                         -0.2271063              -6.1799
        16                         -0.2064233              -5.6171
        17                         -0.1928869              -5.2487
        18                         -0.1629041              -4.4328
        19                         -0.0714176              -1.9434
        20                         -0.0283113              -0.7704
        21                          0.0168635               0.4589
        22                          0.1374207               3.7394
        23                          0.1541518               4.1947
        24                          0.2002189               5.4482
       ...                                ...                  ...
        30                          1.4085430              38.3284
      -------------------------------------------------------------
                  HL-Gap            0.0677128 Eh            1.8426 eV

     #   Z          covCN         q      C6AA      α(0)
     1   4 Be       2.460     0.385    14.828     8.890
     2   5 B        1.859     0.015    43.946    13.961
     3   5 B        2.753     0.076    20.245     7.530
     4   6 C        3.431    -0.201    27.895     8.054
     5   6 C        2.861    -0.047    29.168     8.853
     6   6 C        1.292    -0.206    43.877    11.198
     7   1 H        0.577     0.071     2.615     2.666
     8   1 H        0.291    -0.068    10.641     5.920
     9   1 H        0.455     0.045     4.154     3.555
    10   1 H        0.431    -0.067     8.408     5.106
    11   1 H        0.808     0.013     2.895     2.672
    12   1 H        0.808    -0.015     3.386     2.890

Wiberg/Mayer (AO) data.
largest (>0.10) Wiberg bond orders for each atom

     #   Z sym  total        # sym  WBO       # sym  WBO       # sym  WBO
 ---------------------------------------------------------------------------
     1   4 Be   2.128 --     2 B    1.008     3 B    0.914     4 C    0.131
     2   5 B    3.320 --     4 C    1.744     1 Be   1.008     3 B    0.349
                             6 C    0.184
     3   5 B    3.141 --     4 C    0.924     1 Be   0.914     5 C    0.809
                             2 B    0.349
     4   6 C    3.904 --     2 B    1.744     5 C    1.010     3 B    0.924
                             1 Be   0.131
     5   6 C    3.965 --     6 C    2.052     4 C    1.010     3 B    0.809
     6   6 C    3.137 --     5 C    2.052     7 H    0.264     2 B    0.184
                             9 H    0.169     8 H    0.154
     7   1 H    0.995 --     8 H    0.726     6 C    0.264
     8   1 H    0.991 --     7 H    0.726     6 C    0.154
     9   1 H    0.998 --    10 H    0.824     6 C    0.169
    10   1 H    0.988 --     9 H    0.824
    11   1 H    1.000 --    12 H    0.997
    12   1 H    1.000 --    11 H    0.997
 ---------------------------------------------------------------------------

molecular dipole:
                 x           y           z       tot (Debye)
 q only:       -0.957       0.249      -2.510
   full:       -0.778       0.062      -2.563       6.810

normal termination of xtb

           -------------------------------------------------
          | TOTAL ENERGY              -12.164188571216 Eh   |
          | GRADIENT NORM               0.000868633750 Eh/α |
          | HOMO-LUMO GAP               1.842560069588 eV   |
           -------------------------------------------------

 * finished run on 2025/06/07 at 03:27:42.121
