   * xtb version 6.5.1 (conda-forge) compiled by 'runner@Mac-1657629245115.local' on 2022-07-12
          program call               : xtb B2Be2H5.xyz --gfn 2 --opt

   ID    Z sym.   atoms
    1    4 Be     1, 2
    2    5 B      3, 4
    3    1 H      5-9

          :  Hamiltonian                  GFN2-xTB          :
 * total energy  :    -5.6085391 Eh     change       -0.2861791E-09 Eh
 * total energy  :    -5.7410009 Eh     change       -0.1324619E+00 Eh
 * total energy  :    -5.8395201 Eh     change       -0.9851918E-01 Eh
 * total energy  :    -5.8743615 Eh     change       -0.3484136E-01 Eh
 * total energy  :    -5.8975532 Eh     change       -0.2319174E-01 Eh
 * total energy  :    -5.9107154 Eh     change       -0.1316218E-01 Eh
 * total energy  :    -5.9159591 Eh     change       -0.5243698E-02 Eh
 * total energy  :    -5.9263242 Eh     change       -0.1036507E-01 Eh
 * total energy  :    -5.9248396 Eh     change        0.1484534E-02 Eh
 * total energy  :    -5.9341836 Eh     change       -0.9343947E-02 Eh
 * total energy  :    -6.0525356 Eh     change       -0.9677979E-04 Eh
 * total energy  :    -6.0525579 Eh     change       -0.2225819E-04 Eh
 * total energy  :    -6.0525689 Eh     change       -0.1102577E-04 Eh
 * total energy  :    -6.0525739 Eh     change       -0.5047495E-05 Eh
 * total energy  :    -6.0525897 Eh     change       -0.1573170E-04 Eh
 * total energy  :    -6.0526035 Eh     change       -0.1382972E-04 Eh
 * total energy  :    -6.0526106 Eh     change       -0.7065611E-05 Eh
 * total energy  :    -6.0526187 Eh     change       -0.8171323E-05 Eh
 * total energy  :    -6.0526201 Eh     change       -0.1345261E-05 Eh
   *** GEOMETRY OPTIMIZATION CONVERGED AFTER 101 ITERATIONS ***

 final structure:
================
9
 xtb: 6.5.1 (conda-forge)
Be           1.37727460989705        0.70664460064749        1.56054505756873
Be           2.73192050318638       -0.30662484006739        0.69083168260079
B            4.14940172504392       -0.19058885600820        1.91628829894814
B            2.90838868185612        0.53175910280156        2.32855278991529
H            5.26652773876370       -0.56984934413102        2.03461030289643
H            4.06241700699162        2.45824987275468        1.75298483257723
H            4.43306790522190        3.19709652371194        1.66527287991485
H            2.65899523813392       -1.24708602571751        3.82512623486399
H            2.54000659090815       -1.77866403399219        4.44928792071528

          :  Hamiltonian                  GFN2-xTB          :
         :: total energy              -6.052620088750 Eh    ::
         :: gradient norm              0.000318898541 Eh/a0 ::
         :: HOMO-LUMO gap              1.572642143288 eV    ::
         :: SCC energy                -6.167956181280 Eh    ::
         :: -> dispersion             -0.003210483224 Eh    ::
         :: repulsion energy           0.115333164583 Eh    ::

    * Orbital Energies and Occupations

         #    Occupation            Energy/Eh            Energy/eV
      -------------------------------------------------------------
         1        2.0000           -0.4281754             -11.6512
         2        2.0000           -0.4275873             -11.6352
         3        2.0000           -0.3687695             -10.0347
         4        2.0000           -0.3373443              -9.1796
         5        2.0000           -0.2793617              -7.6018
         6        2.0000           -0.2478244              -6.7436
         7        2.0000           -0.2230406              -6.0692
         8        1.0000           -0.1962727              -5.3409 (HOMO)
         9                         -0.1384792              -3.7682 (LUMO)
        10                         -0.1094747              -2.9790
        11                         -0.1040687              -2.8319
        12                         -0.0469455              -1.2775
        13                          0.0263172               0.7161
        14                          0.0555325               1.5111
        15                          0.1243232               3.3830
        16                          0.1524436               4.1482
        17                          0.3209744               8.7342
        18                          0.4120700              11.2130
        19                          0.6680405              18.1783
       ...                                ...                  ...
        21                          1.8353871              49.9434
      -------------------------------------------------------------
                  HL-Gap            0.0577935 Eh            1.5726 eV

     #   Z          covCN         q      C6AA      α(0)
     1   4 Be       1.886     0.276    16.123     9.285
     2   4 Be       2.754     0.302    15.746     9.161
     3   5 B        2.799    -0.034    22.081     7.853
     4   5 B        2.781    -0.178    24.988     8.358
     5   1 H        0.933    -0.219    12.337     5.492
     6   1 H        0.597    -0.010     3.925     3.241
     7   1 H        0.597    -0.066     5.475     3.828
     8   1 H        0.610    -0.008     3.804     3.175
     9   1 H        0.610    -0.064     5.287     3.743

Wiberg/Mayer (AO) data.
largest (>0.10) Wiberg bond orders for each atom

     #   Z sym  total        # sym  WBO       # sym  WBO       # sym  WBO
 ---------------------------------------------------------------------------
     1   4 Be   1.970 --     4 B    0.955     2 Be   0.805     3 B    0.172
     2   4 Be   2.080 --     1 Be   0.805     4 B    0.680     3 B    0.564
     3   5 B    3.414 --     4 B    1.651     5 H    0.940     2 Be   0.564
                             1 Be   0.172
     4   5 B    3.430 --     3 B    1.651     1 Be   0.955     2 Be   0.680
     5   1 H    0.952 --     3 B    0.940
     6   1 H    1.000 --     7 H    0.923
     7   1 H    0.995 --     6 H    0.923
     8   1 H    1.000 --     9 H    0.927
     9   1 H    0.995 --     8 H    0.927
 ---------------------------------------------------------------------------

molecular dipole:
                 x           y           z       tot (Debye)
 q only:       -2.117       0.054      -1.373
   full:       -1.884      -0.130      -1.551       6.212

           -------------------------------------------------
          | TOTAL ENERGY               -6.052620088750 Eh   |
          | GRADIENT NORM               0.000318898541 Eh/α |
          | HOMO-LUMO GAP               1.572642143288 eV   |
           -------------------------------------------------

normal termination of xtb
 * finished run on 2025/06/07 at 03:27:40.656
