   * xtb version 6.5.1 (conda-forge) compiled by 'runner@Mac-1657629245115.local' on 2022-07-12
          program call               : xtb B2BeC2H4.xyz --gfn 2 --opt

   ID    Z sym.   atoms
    1    4 Be     1
    2    5 B      2, 3
    3    6 C      4, 5
    4    1 H      6-9

          :  Hamiltonian                  GFN2-xTB          :
 * total energy  :    -8.5905527 Eh     change        0.5465521E-08 Eh
 * total energy  :    -8.7750353 Eh     change       -0.1844826E+00 Eh
 * total energy  :    -8.8826621 Eh     change       -0.1076268E+00 Eh
 * total energy  :    -8.9486913 Eh     change       -0.6602921E-01 Eh
 * total energy  :    -8.9897591 Eh     change       -0.4106781E-01 Eh
 * total energy  :    -9.0082210 Eh     change       -0.1846192E-01 Eh
 * total energy  :    -9.0345238 Eh     change       -0.2630281E-01 Eh
 * total energy  :    -9.0579610 Eh     change       -0.2343719E-01 Eh
 * total energy  :    -9.0745396 Eh     change       -0.1657856E-01 Eh
 * total energy  :    -9.0911751 Eh     change       -0.1663553E-01 Eh
 * total energy  :    -9.2017105 Eh     change       -0.1115914E-03 Eh
 * total energy  :    -9.2017947 Eh     change       -0.8419008E-04 Eh
 * total energy  :    -9.2018638 Eh     change       -0.6913518E-04 Eh
 * total energy  :    -9.2019162 Eh     change       -0.5232868E-04 Eh
 * total energy  :    -9.2019600 Eh     change       -0.4383856E-04 Eh
 * total energy  :    -9.2019705 Eh     change       -0.1047432E-04 Eh
 * total energy  :    -9.2019770 Eh     change       -0.6538484E-05 Eh
 * total energy  :    -9.2019870 Eh     change       -0.9934684E-05 Eh
 * total energy  :    -9.2019919 Eh     change       -0.4918784E-05 Eh
   *** GEOMETRY OPTIMIZATION CONVERGED AFTER 32 ITERATIONS ***

 final structure:
================
9
 xtb: 6.5.1 (conda-forge)
Be           0.38587461767456       -0.12018505484314        0.38521336214001
B            2.07725602628045       -0.11983355772209        0.52202114283447
B            0.33490665227091        0.14310785035377        2.08493833619941
C            1.89681575490645        0.09122218310488        1.87904411796267
C            1.39940204917574        0.31242450101200        3.23710142186594
H            1.57103455950580       -0.48024165375692        3.96859658472668
H            1.59275164662135        1.29007306687675        3.68468717547714
H            0.45874089888882        0.52770458310147        6.53350750453325
H            0.13921779467591       -0.01627191812656        6.98689035426058

          :  Hamiltonian                  GFN2-xTB          :
         :: total energy              -9.201991870488 Eh    ::
         :: gradient norm              0.000454702401 Eh/a0 ::
         :: HOMO-LUMO gap              2.765245327108 eV    ::
         :: SCC energy                -9.384393201325 Eh    ::
         :: -> dispersion             -0.003581160312 Eh    ::
         :: repulsion energy           0.182407296090 Eh    ::

    * Orbital Energies and Occupations

         #    Occupation            Energy/Eh            Energy/eV
      -------------------------------------------------------------
         1        2.0000           -0.5416460             -14.7389
         2        2.0000           -0.4846218             -13.1872
         3        2.0000           -0.4543078             -12.3623
         4        2.0000           -0.4343788             -11.8200
         5        2.0000           -0.4171420             -11.3510
         6        2.0000           -0.3918905             -10.6639
         7        2.0000           -0.3307172              -8.9993
         8        2.0000           -0.3085788              -8.3969
         9        2.0000           -0.3071611              -8.3583
        10        2.0000           -0.2879037              -7.8343 (HOMO)
        11                         -0.1862828              -5.0690 (LUMO)
        12                         -0.1721108              -4.6834
        13                         -0.1386939              -3.7741
        14                         -0.1311976              -3.5701
        15                          0.0086244               0.2347
        16                          0.0104944               0.2856
        17                          0.1340470               3.6476
        18                          0.1731945               4.7129
        19                          0.3014392               8.2026
        20                          0.3052373               8.3059
        21                          0.3595023               9.7826
       ...                                ...                  ...
        24                          1.4768358              40.1867
      -------------------------------------------------------------
                  HL-Gap            0.1016209 Eh            2.7652 eV

     #   Z          covCN         q      C6AA      α(0)
     1   4 Be       2.419     0.367    15.020     8.947
     2   5 B        1.876    -0.020    45.183    14.154
     3   5 B        2.766     0.037    20.878     7.643
     4   6 C        3.385    -0.230    29.832     8.490
     5   6 C        3.726    -0.105    22.614     6.790
     6   1 H        0.924    -0.024     3.507     2.929
     7   1 H        0.924    -0.025     3.521     2.935
     8   1 H        0.813     0.006     3.010     2.724
     9   1 H        0.813    -0.006     3.208     2.812

Wiberg/Mayer (AO) data.
largest (>0.10) Wiberg bond orders for each atom

     #   Z sym  total        # sym  WBO       # sym  WBO       # sym  WBO
 ---------------------------------------------------------------------------
     1   4 Be   2.142 --     2 B    1.016     3 B    0.937     4 C    0.146
     2   5 B    3.366 --     4 C    1.848     1 Be   1.016     3 B    0.405
     3   5 B    3.133 --     1 Be   0.937     5 C    0.922     4 C    0.864
                             2 B    0.405
     4   6 C    3.898 --     2 B    1.848     5 C    1.038     3 B    0.864
                             1 Be   0.146
     5   6 C    3.947 --     4 C    1.038     6 H    0.960     7 H    0.960
                             3 B    0.922
     6   1 H    0.999 --     5 C    0.960
     7   1 H    0.999 --     5 C    0.960
     8   1 H    1.000 --     9 H    0.999
     9   1 H    1.000 --     8 H    0.999
 ---------------------------------------------------------------------------

molecular dipole:
                 x           y           z       tot (Debye)
 q only:       -1.031      -0.203      -1.424
   full:       -0.695      -0.133      -0.926       2.963

normal termination of xtb

           -------------------------------------------------
          | TOTAL ENERGY               -9.201991870488 Eh   |
          | GRADIENT NORM               0.000454702401 Eh/α |
          | HOMO-LUMO GAP               2.765245327108 eV   |
           -------------------------------------------------

 * finished run on 2025/06/07 at 03:27:40.919
