   * xtb version 6.5.1 (conda-forge) compiled by 'runner@Mac-1657629245115.local' on 2022-07-12
          program call               : xtb B3BeC2H4.xyz --gfn 2 --opt

   ID    Z sym.   atoms
    1    4 Be     1
    2    5 B      2-4
    3    6 C      5, 6
    4    1 H      7-10

          :  Hamiltonian                  GFN2-xTB          :
 * total energy  :    -9.6096256 Eh     change        0.1224560E-08 Eh
 * total energy  :    -9.8118007 Eh     change       -0.2021751E+00 Eh
 * total energy  :    -9.9712310 Eh     change       -0.1594303E+00 Eh
 * total energy  :   -10.0403407 Eh     change       -0.6910968E-01 Eh
 * total energy  :   -10.0853589 Eh     change       -0.4501817E-01 Eh
 * total energy  :   -10.1160708 Eh     change       -0.3071194E-01 Eh
 * total energy  :   -10.1492528 Eh     change       -0.3318196E-01 Eh
 * total energy  :   -10.1416975 Eh     change        0.7555275E-02 Eh
 * total energy  :   -10.1776226 Eh     change       -0.3592512E-01 Eh
 * total energy  :   -10.1489486 Eh     change        0.2867399E-01 Eh
 * total energy  :   -10.3660600 Eh     change        0.2293646E-03 Eh
 * total energy  :   -10.3663359 Eh     change       -0.2758590E-03 Eh
 * total energy  :   -10.3663567 Eh     change       -0.2077404E-04 Eh
 * total energy  :   -10.3663916 Eh     change       -0.3488260E-04 Eh
 * total energy  :   -10.3664305 Eh     change       -0.3898017E-04 Eh
 * total energy  :   -10.3664497 Eh     change       -0.1918852E-04 Eh
 * total energy  :   -10.3664655 Eh     change       -0.1575754E-04 Eh
 * total energy  :   -10.3664809 Eh     change       -0.1542085E-04 Eh
 * total energy  :   -10.3664840 Eh     change       -0.3137824E-05 Eh
   *** GEOMETRY OPTIMIZATION CONVERGED AFTER 79 ITERATIONS ***

 final structure:
================
10
 xtb: 6.5.1 (conda-forge)
Be          -0.23060454163230        0.47931187793565       -1.51642196259441
B            0.34083659323721        0.41628562258417        0.04059778617621
B            0.86026420536431        0.35356056836694        1.44244885606300
B            1.38889479864001        0.28533316314505        2.87085280318691
C            2.32742476800310        0.17564960108803        5.40647911074702
C            1.87535406867773        0.22993628564823        4.17451560732960
H            2.41024039351523       -0.75391282658105        5.96574708521641
H            2.66564933654891        1.05528460617533        5.94951821830457
H            0.01968305764987        0.44410516387958        6.35950348007084
H           -0.56974268002131        0.50475593774050        6.87175901549827

          :  Hamiltonian                  GFN2-xTB          :
         :: total energy             -10.366484048919 Eh    ::
         :: gradient norm              0.000762743245 Eh/a0 ::
         :: HOMO-LUMO gap              0.866349339188 eV    ::
         :: SCC energy               -10.595742007126 Eh    ::
         :: -> dispersion             -0.005361871678 Eh    ::
         :: repulsion energy           0.229287443246 Eh    ::

    * Orbital Energies and Occupations

         #    Occupation            Energy/Eh            Energy/eV
      -------------------------------------------------------------
         1        2.0000           -0.5341948             -14.5362
         2        2.0000           -0.4679603             -12.7338
         3        2.0000           -0.4351476             -11.8410
         4        2.0000           -0.4262340             -11.5984
         5        2.0000           -0.3962921             -10.7837
         6        2.0000           -0.3815785             -10.3833
         7        2.0000           -0.3449827              -9.3875
         8        2.0000           -0.3407482              -9.2722
         9        2.0000           -0.2935878              -7.9889
        10        2.0000           -0.2781131              -7.5678
        11        1.9996           -0.2564287              -6.9778
        12        1.0004           -0.2415202              -6.5721 (HOMO)
        13                         -0.2096825              -5.7057 (LUMO)
        14                         -0.1834849              -4.9929
        15                         -0.1608448              -4.3768
        16                         -0.1384170              -3.7665
        17                         -0.0618298              -1.6825
        18                         -0.0414860              -1.1289
        19                          0.0595020               1.6191
        20                          0.0711873               1.9371
        21                          0.1569138               4.2698
        22                          0.1958380               5.3290
        23                          0.3522129               9.5842
       ...                                ...                  ...
        28                          1.3526503              36.8075
      -------------------------------------------------------------
                  HL-Gap            0.0318378 Eh            0.8663 eV

     #   Z          covCN         q      C6AA      α(0)
     1   4 Be       0.912     0.324    69.086    24.929
     2   5 B        1.890    -0.128    49.417    14.801
     3   5 B        1.957    -0.008    44.415    14.016
     4   5 B        1.885     0.063    42.171    13.673
     5   6 C        2.830    -0.078    29.944     8.967
     6   6 C        1.888    -0.154    35.490     9.622
     7   1 H        0.925    -0.005     3.153     2.777
     8   1 H        0.925    -0.006     3.155     2.778
     9   1 H        0.793     0.016     2.853     2.656
    10   1 H        0.793    -0.025     3.604     2.985

Wiberg/Mayer (AO) data.
largest (>0.10) Wiberg bond orders for each atom

     #   Z sym  total        # sym  WBO       # sym  WBO       # sym  WBO
 ---------------------------------------------------------------------------
     1   4 Be   1.734 --     2 B    1.353     3 B    0.305
     2   5 B    3.193 --     3 B    1.604     1 Be   1.353     4 B    0.230
     3   5 B    3.419 --     2 B    1.604     4 B    1.342     1 Be   0.305
                             6 C    0.112
     4   5 B    3.483 --     6 C    1.729     3 B    1.342     2 B    0.230
     5   6 C    3.886 --     6 C    1.888     8 H    0.949     7 H    0.949
     6   6 C    3.747 --     5 C    1.888     4 B    1.729     3 B    0.112
     7   1 H    0.988 --     5 C    0.949
     8   1 H    0.988 --     5 C    0.949
     9   1 H    1.000 --    10 H    0.987
    10   1 H    0.998 --     9 H    0.987
 ---------------------------------------------------------------------------

molecular dipole:
                 x           y           z       tot (Debye)
 q only:       -0.984       0.116      -2.883
   full:       -1.315       0.150      -3.796      10.218

normal termination of xtb

           -------------------------------------------------
          | TOTAL ENERGY              -10.366484048919 Eh   |
          | GRADIENT NORM               0.000762743245 Eh/α |
          | HOMO-LUMO GAP               0.866349339188 eV   |
           -------------------------------------------------

 * finished run on 2025/06/07 at 03:27:43.511
