   * xtb version 6.5.1 (conda-forge) compiled by 'runner@Mac-1657629245115.local' on 2022-07-12
          program call               : xtb B3BeH3.xyz --gfn 2 --opt

   ID    Z sym.   atoms
    1    4 Be     1
    2    5 B      2-4
    3    1 H      5-7

          :  Hamiltonian                  GFN2-xTB          :
 * total energy  :    -5.1291539 Eh     change        0.1295781E-09 Eh
 * total energy  :    -5.3012304 Eh     change       -0.1720765E+00 Eh
 * total energy  :    -5.4505746 Eh     change       -0.1493442E+00 Eh
 * total energy  :    -5.5449425 Eh     change       -0.9436792E-01 Eh
 * total energy  :    -5.6016409 Eh     change       -0.5669836E-01 Eh
 * total energy  :    -5.6381789 Eh     change       -0.3653804E-01 Eh
 * total energy  :    -5.6519299 Eh     change       -0.1375103E-01 Eh
 * total energy  :    -5.6504952 Eh     change        0.1434763E-02 Eh
 * total energy  :    -5.6654071 Eh     change       -0.1491196E-01 Eh
 * total energy  :    -5.6696457 Eh     change       -0.4238562E-02 Eh
 * total energy  :    -5.6936084 Eh     change       -0.3961897E-03 Eh
 * total energy  :    -5.6939580 Eh     change       -0.3495745E-03 Eh
 * total energy  :    -5.6941400 Eh     change       -0.1820495E-03 Eh
 * total energy  :    -5.6941011 Eh     change        0.3890561E-04 Eh
 * total energy  :    -5.6942590 Eh     change       -0.1579268E-03 Eh
 * total energy  :    -5.6942855 Eh     change       -0.2648551E-04 Eh
 * total energy  :    -5.6943088 Eh     change       -0.2333740E-04 Eh
 * total energy  :    -5.6943136 Eh     change       -0.4709869E-05 Eh
 * total energy  :    -5.6943155 Eh     change       -0.1986591E-05 Eh
   *** GEOMETRY OPTIMIZATION CONVERGED AFTER 31 ITERATIONS ***

 final structure:
================
7
 xtb: 6.5.1 (conda-forge)
Be           0.64268134504010       -0.34895204206192        1.10110533526931
B            1.43862268609087        0.97339786325813        0.58231636008251
B            1.48282676355000        1.03220307062866        2.07097845199826
B            0.86080724093273       -0.00344654477338        3.20089403972858
H            1.51910508288130       -0.84399261922859        3.72628637053884
H            1.63280259846814        1.26700836599786        3.28872947857820
H           -0.18484571696322        0.19103690617922        3.73418996380463

          :  Hamiltonian                  GFN2-xTB          :
         :: total energy              -5.694315542179 Eh    ::
         :: gradient norm              0.000538734267 Eh/a0 ::
         :: HOMO-LUMO gap              1.986162312612 eV    ::
         :: SCC energy                -5.783372718299 Eh    ::
         :: -> dispersion             -0.003185709937 Eh    ::
         :: repulsion energy           0.089056963512 Eh    ::

    * Orbital Energies and Occupations

         #    Occupation            Energy/Eh            Energy/eV
      -------------------------------------------------------------
         1        2.0000           -0.4602201             -12.5232
         2        2.0000           -0.4096500             -11.1471
         3        2.0000           -0.3891243             -10.5886
         4        2.0000           -0.3839833             -10.4487
         5        2.0000           -0.3103220              -8.4443
         6        2.0000           -0.2929294              -7.9710
         7        2.0000           -0.2664225              -7.2497 (HOMO)
         8                         -0.1934323              -5.2636 (LUMO)
         9                         -0.1867137              -5.0807
        10                         -0.1090166              -2.9665
        11                         -0.0900708              -2.4510
        12                         -0.0420385              -1.1439
        13                          0.1323154               3.6005
        14                          0.2331699               6.3449
        15                          0.3663792               9.9697
        16                          0.4350974              11.8396
        17                          0.5011268              13.6364
        18                          0.8261388              22.4804
        19                          1.1901556              32.3858
      -------------------------------------------------------------
                  HL-Gap            0.0729901 Eh            1.9862 eV

     #   Z          covCN         q      C6AA      α(0)
     1   4 Be       2.475     0.407    14.604     8.822
     2   5 B        1.891    -0.101    48.296    14.632
     3   5 B        3.716    -0.020    22.981     7.751
     4   5 B        3.884     0.125    20.543     7.304
     5   1 H        0.931    -0.191    10.177     4.988
     6   1 H        1.272    -0.028     3.576     2.952
     7   1 H        0.931    -0.191    10.175     4.988

Wiberg/Mayer (AO) data.
largest (>0.10) Wiberg bond orders for each atom

     #   Z sym  total        # sym  WBO       # sym  WBO       # sym  WBO
 ---------------------------------------------------------------------------
     1   4 Be   2.165 --     2 B    1.405     3 B    0.558     4 B    0.203
     2   5 B    3.372 --     3 B    1.709     1 Be   1.405     4 B    0.218
     3   5 B    3.645 --     2 B    1.709     4 B    0.797     6 H    0.578
                             1 Be   0.558
     4   5 B    3.521 --     7 H    0.955     5 H    0.955     3 B    0.797
                             6 H    0.394     2 B    0.218     1 Be   0.203
     5   1 H    0.963 --     4 B    0.955
     6   1 H    0.999 --     3 B    0.578     4 B    0.394
     7   1 H    0.963 --     4 B    0.955
 ---------------------------------------------------------------------------

molecular dipole:
                 x           y           z       tot (Debye)
 q only:       -0.202      -0.325      -1.459
   full:       -0.439      -0.731       0.071       2.174

normal termination of xtb

           -------------------------------------------------
          | TOTAL ENERGY               -5.694315542179 Eh   |
          | GRADIENT NORM               0.000538734267 Eh/α |
          | HOMO-LUMO GAP               1.986162312612 eV   |
           -------------------------------------------------

 * finished run on 2025/06/07 at 03:27:46.160
