   * xtb version 6.5.1 (conda-forge) compiled by 'runner@Mac-1657629245115.local' on 2022-07-12
          program call               : xtb B3BeC3H4.xyz --gfn 2 --opt

   ID    Z sym.   atoms
    1    4 Be     1
    2    5 B      2-4
    3    6 C      5-7
    4    1 H      8-11

          :  Hamiltonian                  GFN2-xTB          :
 * total energy  :   -11.5545218 Eh     change       -0.1281876E-08 Eh
 * total energy  :   -11.7632929 Eh     change       -0.2087711E+00 Eh
 * total energy  :   -11.9677228 Eh     change       -0.2044299E+00 Eh
 * total energy  :   -12.0548228 Eh     change       -0.8710002E-01 Eh
 * total energy  :   -12.1060200 Eh     change       -0.5119714E-01 Eh
 * total energy  :   -12.1265319 Eh     change       -0.2051196E-01 Eh
 * total energy  :   -12.1533318 Eh     change       -0.2679984E-01 Eh
 * total energy  :   -12.1631466 Eh     change       -0.9814809E-02 Eh
 * total energy  :   -12.2162842 Eh     change       -0.5313763E-01 Eh
 * total energy  :   -12.2535631 Eh     change       -0.3727886E-01 Eh
 * total energy  :   -12.5578211 Eh     change       -0.1877736E-03 Eh
 * total energy  :   -12.5579222 Eh     change       -0.1010795E-03 Eh
 * total energy  :   -12.5580237 Eh     change       -0.1014413E-03 Eh
 * total energy  :   -12.5581296 Eh     change       -0.1059669E-03 Eh
 * total energy  :   -12.5581821 Eh     change       -0.5246259E-04 Eh
 * total energy  :   -12.5582206 Eh     change       -0.3854539E-04 Eh
 * total energy  :   -12.5582298 Eh     change       -0.9118100E-05 Eh
 * total energy  :   -12.5582380 Eh     change       -0.8254002E-05 Eh
 * total energy  :   -12.5582409 Eh     change       -0.2901239E-05 Eh
   *** GEOMETRY OPTIMIZATION CONVERGED AFTER 106 ITERATIONS ***

 final structure:
================
11
 xtb: 6.5.1 (conda-forge)
Be           0.30709645454884        0.26380324398021       -1.26119379586367
B            0.55894334645972        0.31003721840005        0.37735261067241
B            0.77951220409335        0.35179914380652        1.85316711530822
B            0.99987186392424        0.39457637434857        3.36778912047198
C            1.19986553061158        0.43858425973713        4.75053392050343
C            0.67645263203231        0.69953631094745        6.11639044505908
C            2.09120212562334        0.25470115461158        5.92501885503933
H            2.36276432152284       -0.75466038588236        6.21798596880709
H            2.88916014661198        0.97197066201494        6.08904160178950
H            0.49072256319073        1.72667542461104        6.41329803249227
H           -0.03559118861878        0.00033359361392        6.54311612571386

          :  Hamiltonian                  GFN2-xTB          :
         :: total energy             -12.558240905550 Eh    ::
         :: gradient norm              0.000759604234 Eh/a0 ::
         :: HOMO-LUMO gap              1.321407303192 eV    ::
         :: SCC energy               -12.788110479097 Eh    ::
         :: -> dispersion             -0.006588775068 Eh    ::
         :: repulsion energy           0.229900498867 Eh    ::

    * Orbital Energies and Occupations

         #    Occupation            Energy/Eh            Energy/eV
      -------------------------------------------------------------
         1        2.0000           -0.5764296             -15.6854
         2        2.0000           -0.5139581             -13.9855
         3        2.0000           -0.4855085             -13.2114
         4        2.0000           -0.4645162             -12.6401
         5        2.0000           -0.4294262             -11.6853
         6        2.0000           -0.4011527             -10.9159
         7        2.0000           -0.3829977             -10.4219
         8        2.0000           -0.3664338              -9.9712
         9        2.0000           -0.3599701              -9.7953
        10        2.0000           -0.3381662              -9.2020
        11        2.0000           -0.2916369              -7.9358
        12        2.0000           -0.2837185              -7.7204
        13        1.9989           -0.2527527              -6.8778
        14        1.0011           -0.2398357              -6.5263 (HOMO)
        15                         -0.1912748              -5.2049 (LUMO)
        16                         -0.1803408              -4.9073
        17                         -0.1598304              -4.3492
        18                         -0.1026176              -2.7924
        19                         -0.0624067              -1.6982
        20                          0.0144503               0.3932
        21                          0.0586443               1.5958
        22                          0.0885663               2.4100
        23                          0.1787211               4.8632
        24                          0.1908175               5.1924
        25                          0.2465655               6.7094
       ...                                ...                  ...
        32                          1.2974624              35.3057
      -------------------------------------------------------------
                  HL-Gap            0.0485608 Eh            1.3214 eV

     #   Z          covCN         q      C6AA      α(0)
     1   4 Be       0.912     0.322    69.175    24.945
     2   5 B        1.891    -0.135    49.701    14.843
     3   5 B        1.956    -0.013    44.588    14.043
     4   5 B        1.885     0.072    41.878    13.626
     5   6 C        2.863    -0.140    31.593     9.213
     6   6 C        3.805    -0.049    21.449     6.593
     7   6 C        3.805    -0.049    21.448     6.593
     8   1 H        0.925    -0.002     3.097     2.752
     9   1 H        0.925    -0.002     3.096     2.752
    10   1 H        0.925    -0.002     3.095     2.751
    11   1 H        0.925    -0.002     3.096     2.752

Wiberg/Mayer (AO) data.
largest (>0.10) Wiberg bond orders for each atom

     #   Z sym  total        # sym  WBO       # sym  WBO       # sym  WBO
 ---------------------------------------------------------------------------
     1   4 Be   1.755 --     2 B    1.364     3 B    0.322
     2   5 B    3.216 --     3 B    1.649     1 Be   1.364     4 B    0.200
     3   5 B    3.372 --     2 B    1.649     4 B    1.294     1 Be   0.322
     4   5 B    3.443 --     5 C    1.758     3 B    1.294     2 B    0.200
     5   6 C    3.719 --     4 B    1.758     6 C    0.935     7 C    0.935
     6   6 C    3.927 --     7 C    1.004    10 H    0.971    11 H    0.971
                             5 C    0.935
     7   6 C    3.927 --     6 C    1.004     9 H    0.971     8 H    0.971
                             5 C    0.935
     8   1 H    0.996 --     7 C    0.971
     9   1 H    0.996 --     7 C    0.971
    10   1 H    0.996 --     6 C    0.971
    11   1 H    0.996 --     6 C    0.971
 ---------------------------------------------------------------------------

molecular dipole:
                 x           y           z       tot (Debye)
 q only:       -0.436      -0.085      -2.930
   full:       -0.569      -0.107      -3.757       9.663

normal termination of xtb

           -------------------------------------------------
          | TOTAL ENERGY              -12.558240905550 Eh   |
          | GRADIENT NORM               0.000759604234 Eh/α |
          | HOMO-LUMO GAP               1.321407303192 eV   |
           -------------------------------------------------

 * finished run on 2025/06/07 at 03:27:44.531
