   * xtb version 6.5.1 (conda-forge) compiled by 'runner@Mac-1657629245115.local' on 2022-07-12
          program call               : xtb B3BeCH6.xyz --gfn 2 --opt

   ID    Z sym.   atoms
    1    4 Be     1
    2    5 B      2-4
    3    6 C      5
    4    1 H      6-11

          :  Hamiltonian                  GFN2-xTB          :
 * total energy  :    -8.5860826 Eh     change       -0.4491216E-09 Eh
 * total energy  :    -8.7845976 Eh     change       -0.1985150E+00 Eh
 * total energy  :    -8.8922141 Eh     change       -0.1076165E+00 Eh
 * total energy  :    -8.9303465 Eh     change       -0.3813241E-01 Eh
 * total energy  :    -8.9265455 Eh     change        0.3801061E-02 Eh
 * total energy  :    -8.9588542 Eh     change       -0.3230869E-01 Eh
 * total energy  :    -8.9630109 Eh     change       -0.4156761E-02 Eh
 * total energy  :    -9.0007567 Eh     change       -0.3774574E-01 Eh
 * total energy  :    -8.9932850 Eh     change        0.7471613E-02 Eh
 * total energy  :    -9.0212523 Eh     change       -0.2796730E-01 Eh
 * total energy  :    -9.2578629 Eh     change       -0.1260383E-04 Eh
 * total energy  :    -9.2578747 Eh     change       -0.1179635E-04 Eh
 * total energy  :    -9.2578900 Eh     change       -0.1533017E-04 Eh
 * total energy  :    -9.2579051 Eh     change       -0.1504620E-04 Eh
 * total energy  :    -9.2579167 Eh     change       -0.1161489E-04 Eh
 * total energy  :    -9.2579255 Eh     change       -0.8815706E-05 Eh
 * total energy  :    -9.2579323 Eh     change       -0.6765506E-05 Eh
 * total energy  :    -9.2579376 Eh     change       -0.5341206E-05 Eh
 * total energy  :    -9.2579416 Eh     change       -0.3954239E-05 Eh
   *** GEOMETRY OPTIMIZATION CONVERGED AFTER 169 ITERATIONS ***

 final structure:
================
11
 xtb: 6.5.1 (conda-forge)
Be           3.15928025583893        0.84309049375182        0.88626399467101
B            2.35538508140603        0.54160726957990        2.45223037094007
B            1.66308620824796        0.30938029115769        3.80568500349418
B            1.13161958227389       -0.51619682665718        5.03471964773896
C            0.90957340794075        0.85575723449211        5.09596448332451
H            0.58807764542787        1.81133412627476        5.45798835230664
H            3.75052234948173        1.15398359664347       -0.24268072742295
H            3.82870059558627        2.31251817014654        3.53103555244992
H            4.22995029858572        2.87939949904782        3.90986306019653
H            0.94315170760513       -1.84095676239762        5.76275485323451
H            0.77165286770453       -2.55793909198188        6.29867540915039

          :  Hamiltonian                  GFN2-xTB          :
         :: total energy              -9.257941564238 Eh    ::
         :: gradient norm              0.000517170041 Eh/a0 ::
         :: HOMO-LUMO gap              0.053476182270 eV    ::
         :: SCC energy                -9.427461745666 Eh    ::
         :: -> dispersion             -0.005146182546 Eh    ::
         :: repulsion energy           0.169522683122 Eh    ::

    * Orbital Energies and Occupations

         #    Occupation            Energy/Eh            Energy/eV
      -------------------------------------------------------------
         1        2.0000           -0.5160330             -14.0420
         2        2.0000           -0.4750234             -12.9260
         3        2.0000           -0.4604791             -12.5303
         4        2.0000           -0.4452332             -12.1154
         5        2.0000           -0.4079395             -11.1006
         6        2.0000           -0.3880539             -10.5595
         7        2.0000           -0.3544387              -9.6448
         8        2.0000           -0.3477312              -9.4622
         9        2.0000           -0.3277310              -8.9180
        10        2.0000           -0.3104183              -8.4469
        11        0.7377           -0.2613407              -7.1114 (HOMO)
        12        0.2623           -0.2593755              -7.0580 (LUMO)
        13                         -0.2058706              -5.6020
        14                         -0.1388926              -3.7795
        15                         -0.1118804              -3.0444
        16                         -0.0824293              -2.2430
        17                         -0.0242713              -0.6605
        18                          0.1309173               3.5624
        19                          0.1378175               3.7502
        20                          0.1975109               5.3745
        21                          0.2269309               6.1751
        22                          0.2938747               7.9967
       ...                                ...                  ...
        26                          1.0593298              28.8258
      -------------------------------------------------------------
                  HL-Gap            0.0019652 Eh            0.0535 eV

     #   Z          covCN         q      C6AA      α(0)
     1   4 Be       1.786     0.406    14.820     8.929
     2   5 B        1.881    -0.025    45.343    14.179
     3   5 B        2.849     0.057    20.458     7.552
     4   5 B        2.174     0.104    37.084    12.552
     5   6 C        2.731    -0.191    33.001     9.405
     6   1 H        0.926    -0.025     3.528     2.937
     7   1 H        0.882    -0.338    30.609     8.660
     8   1 H        0.765    -0.000     3.152     2.797
     9   1 H        0.765    -0.013     3.388     2.900
    10   1 H        0.522     0.053     3.295     3.069
    11   1 H        0.231    -0.028     8.695     5.374

Wiberg/Mayer (AO) data.
largest (>0.10) Wiberg bond orders for each atom

     #   Z sym  total        # sym  WBO       # sym  WBO       # sym  WBO
 ---------------------------------------------------------------------------
     1   4 Be   1.936 --     2 B    1.010     7 H    0.879
     2   5 B    2.551 --     3 B    1.320     1 Be   1.010     4 B    0.114
     3   5 B    3.444 --     2 B    1.320     4 B    1.035     5 C    0.969
     4   5 B    3.287 --     5 C    1.806     3 B    1.035    10 H    0.260
                             2 B    0.114
     5   6 C    3.849 --     4 B    1.806     6 H    0.975     3 B    0.969
     6   1 H    0.998 --     5 C    0.975
     7   1 H    0.885 --     1 Be   0.879
     8   1 H    0.999 --     9 H    0.971
     9   1 H    0.984 --     8 H    0.971
    10   1 H    0.990 --    11 H    0.724     4 B    0.260
    11   1 H    0.909 --    10 H    0.724
 ---------------------------------------------------------------------------

molecular dipole:
                 x           y           z       tot (Debye)
 q only:       -0.085      -0.695       0.167
   full:       -0.261      -0.629       0.529       2.191

normal termination of xtb

           -------------------------------------------------
          | TOTAL ENERGY               -9.257941564238 Eh   |
          | GRADIENT NORM               0.000517170041 Eh/α |
          | HOMO-LUMO GAP               0.053476182270 eV   |
           -------------------------------------------------

 * finished run on 2025/06/07 at 03:27:46.050
