   * xtb version 6.5.1 (conda-forge) compiled by 'runner@Mac-1657629245115.local' on 2022-07-12
          program call               : xtb B3BeC2H6.xyz --gfn 2 --opt

   ID    Z sym.   atoms
    1    4 Be     1
    2    5 B      2-4
    3    6 C      5, 6
    4    1 H      7-12

          :  Hamiltonian                  GFN2-xTB          :
 * total energy  :   -10.6537140 Eh     change       -0.2678625E-08 Eh
 * total energy  :   -10.8258306 Eh     change       -0.1721166E+00 Eh
 * total energy  :   -10.9378049 Eh     change       -0.1119743E+00 Eh
 * total energy  :   -10.9713376 Eh     change       -0.3353266E-01 Eh
 * total energy  :   -11.0035016 Eh     change       -0.3216400E-01 Eh
 * total energy  :   -11.0393900 Eh     change       -0.3588845E-01 Eh
 * total energy  :   -11.0872300 Eh     change       -0.4784003E-01 Eh
 * total energy  :   -11.1218864 Eh     change       -0.3465638E-01 Eh
 * total energy  :   -11.1550215 Eh     change       -0.3313510E-01 Eh
 * total energy  :   -11.1183472 Eh     change        0.3667431E-01 Eh
 * total energy  :   -11.3581402 Eh     change       -0.4548325E-04 Eh
 * total energy  :   -11.3581658 Eh     change       -0.2554191E-04 Eh
 * total energy  :   -11.3581881 Eh     change       -0.2229657E-04 Eh
 * total energy  :   -11.3582069 Eh     change       -0.1880960E-04 Eh
 * total energy  :   -11.3582255 Eh     change       -0.1863466E-04 Eh
 * total energy  :   -11.3582449 Eh     change       -0.1941556E-04 Eh
 * total energy  :   -11.3582592 Eh     change       -0.1425707E-04 Eh
 * total energy  :   -11.3582675 Eh     change       -0.8302492E-05 Eh
 * total energy  :   -11.3582714 Eh     change       -0.3902642E-05 Eh
   *** GEOMETRY OPTIMIZATION CONVERGED AFTER 136 ITERATIONS ***

 final structure:
================
12
 xtb: 6.5.1 (conda-forge)
Be           0.92545404714583       -0.71876856994575        2.12439993232558
B            0.43533524956618        0.59502173089635        1.13953116517159
B            0.73913253080108        1.88251394094456        1.82468681490511
B            1.29460018109302        1.08039729110274        2.97943738555773
C            2.19634882996607       -0.60948784365579        4.79043541040741
C            1.64605727391025       -0.18931322056477        3.65396724298089
H            2.55051091879868        0.07976028629217        5.55571593358883
H            2.33506681325491       -1.65564635433414        5.04137647796304
H            0.81465100341872        2.44023649676335        4.79676483908174
H            0.69042436934650        2.84255609818231        5.47097892772192
H            0.06419531978327        0.15653926411103        6.79378699628819
H           -0.13977653630692       -0.11183111957890        7.49591887459507

          :  Hamiltonian                  GFN2-xTB          :
         :: total energy             -11.358271372292 Eh    ::
         :: gradient norm              0.000734265269 Eh/a0 ::
         :: HOMO-LUMO gap              1.389115977643 eV    ::
         :: SCC energy               -11.599946299317 Eh    ::
         :: -> dispersion             -0.006034111651 Eh    ::
         :: repulsion energy           0.241656662626 Eh    ::

    * Orbital Energies and Occupations

         #    Occupation            Energy/Eh            Energy/eV
      -------------------------------------------------------------
         1        2.0000           -0.5496332             -14.9563
         2        2.0000           -0.4847195             -13.1899
         3        2.0000           -0.4569704             -12.4348
         4        2.0000           -0.4499294             -12.2432
         5        2.0000           -0.4394259             -11.9574
         6        2.0000           -0.4292241             -11.6798
         7        2.0000           -0.3963718             -10.7858
         8        2.0000           -0.3651926              -9.9374
         9        2.0000           -0.3573997              -9.7253
        10        2.0000           -0.3164044              -8.6098
        11        2.0000           -0.3132440              -8.5238
        12        2.0000           -0.2935873              -7.9889
        13        1.0000           -0.2537337              -6.9044 (HOMO)
        14                         -0.2026847              -5.5153 (LUMO)
        15                         -0.1723047              -4.6887
        16                         -0.1640953              -4.4653
        17                         -0.1586965              -4.3184
        18                         -0.0636356              -1.7316
        19                         -0.0438260              -1.1926
        20                         -0.0019613              -0.0534
        21                          0.1349819               3.6730
        22                          0.1598333               4.3493
        23                          0.1873993               5.0994
        24                          0.2354836               6.4078
       ...                                ...                  ...
        30                          1.4245029              38.7627
      -------------------------------------------------------------
                  HL-Gap            0.0510491 Eh            1.3891 eV

     #   Z          covCN         q      C6AA      α(0)
     1   4 Be       2.598     0.402    14.652     8.837
     2   5 B        2.310    -0.058    34.508    11.475
     3   5 B        2.007    -0.012    44.207    13.960
     4   5 B        3.111     0.077    20.078     7.473
     5   6 C        2.831    -0.084    30.085     8.988
     6   6 C        2.720    -0.257    34.973     9.681
     7   1 H        0.925    -0.026     3.543     2.944
     8   1 H        0.925    -0.025     3.523     2.935
     9   1 H        0.752     0.008     3.032     2.748
    10   1 H        0.752    -0.024     3.645     3.013
    11   1 H        0.807     0.008     2.977     2.710
    12   1 H        0.807    -0.009     3.278     2.844

Wiberg/Mayer (AO) data.
largest (>0.10) Wiberg bond orders for each atom

     #   Z sym  total        # sym  WBO       # sym  WBO       # sym  WBO
 ---------------------------------------------------------------------------
     1   4 Be   2.014 --     2 B    1.059     6 C    0.623     4 B    0.173
                             3 B    0.142
     2   5 B    3.280 --     3 B    1.567     1 Be   1.059     4 B    0.513
     3   5 B    3.152 --     2 B    1.567     4 B    1.326     1 Be   0.142
     4   5 B    3.377 --     3 B    1.326     6 C    1.289     2 B    0.513
                             1 Be   0.173
     5   6 C    3.977 --     6 C    1.852     8 H    0.973     7 H    0.960
     6   6 C    3.831 --     5 C    1.852     4 B    1.289     1 Be   0.623
     7   1 H    0.991 --     5 C    0.960
     8   1 H    0.999 --     5 C    0.973
     9   1 H    1.000 --    10 H    0.963
    10   1 H    0.993 --     9 H    0.963
    11   1 H    1.000 --    12 H    0.998
    12   1 H    1.000 --    11 H    0.998
 ---------------------------------------------------------------------------

molecular dipole:
                 x           y           z       tot (Debye)
 q only:       -0.569      -0.324      -1.368
   full:       -0.098      -0.335      -0.355       1.266

normal termination of xtb

           -------------------------------------------------
          | TOTAL ENERGY              -11.358271372292 Eh   |
          | GRADIENT NORM               0.000734265269 Eh/α |
          | HOMO-LUMO GAP               1.389115977643 eV   |
           -------------------------------------------------

 * finished run on 2025/06/07 at 03:27:44.032
