   * xtb version 6.5.1 (conda-forge) compiled by 'runner@Mac-1657629245115.local' on 2022-07-12
          program call               : xtb B3BeCH4.xyz --gfn 2 --opt

   ID    Z sym.   atoms
    1    4 Be     1
    2    5 B      2-4
    3    6 C      5
    4    1 H      6-9

          :  Hamiltonian                  GFN2-xTB          :
 * total energy  :    -7.5453571 Eh     change       -0.1401323E-08 Eh
 * total energy  :    -7.7495256 Eh     change       -0.2041685E+00 Eh
 * total energy  :    -7.9258430 Eh     change       -0.1763174E+00 Eh
 * total energy  :    -7.9313073 Eh     change       -0.5464322E-02 Eh
 * total energy  :    -7.9824840 Eh     change       -0.5117661E-01 Eh
 * total energy  :    -7.9621688 Eh     change        0.2031514E-01 Eh
 * total energy  :    -7.9832721 Eh     change       -0.2110330E-01 Eh
 * total energy  :    -8.0173755 Eh     change       -0.3410341E-01 Eh
 * total energy  :    -8.0311981 Eh     change       -0.1382256E-01 Eh
 * total energy  :    -8.0354261 Eh     change       -0.4228019E-02 Eh
 * total energy  :    -8.2732732 Eh     change       -0.5462190E-04 Eh
 * total energy  :    -8.2733404 Eh     change       -0.6722535E-04 Eh
 * total energy  :    -8.2733741 Eh     change       -0.3371259E-04 Eh
 * total energy  :    -8.2733969 Eh     change       -0.2276667E-04 Eh
 * total energy  :    -8.2734143 Eh     change       -0.1744424E-04 Eh
 * total energy  :    -8.2734267 Eh     change       -0.1236029E-04 Eh
 * total energy  :    -8.2734326 Eh     change       -0.5907725E-05 Eh
 * total energy  :    -8.2734391 Eh     change       -0.6511156E-05 Eh
 * total energy  :    -8.2734432 Eh     change       -0.4114064E-05 Eh
   *** GEOMETRY OPTIMIZATION CONVERGED AFTER 139 ITERATIONS ***

 final structure:
================
9
 xtb: 6.5.1 (conda-forge)
Be           2.87774482251842       -0.28972757903938        0.11114566189942
B            2.39734236261092        0.22133268964304        1.75414547703732
B            1.95727760119259        0.63409294342593        3.16713714130454
B            1.58169342705955        0.38054346381445        4.67834170799806
C            1.49564349029822        1.70075604988606        4.24332275076547
H            1.32513448857504        2.75818251253583        4.26455730306136
H            3.21326376072413       -0.62188265925669       -1.11323522378113
H            1.39288606054968       -0.56475568681569        5.84777769248918
H            1.23801398648400       -1.02823173419619        6.63130748922728

          :  Hamiltonian                  GFN2-xTB          :
         :: total energy              -8.273443240744 Eh    ::
         :: gradient norm              0.000670126520 Eh/a0 ::
         :: HOMO-LUMO gap              0.039331263897 eV    ::
         :: SCC energy                -8.411922095213 Eh    ::
         :: -> dispersion             -0.004250364997 Eh    ::
         :: repulsion energy           0.138484605209 Eh    ::

    * Orbital Energies and Occupations

         #    Occupation            Energy/Eh            Energy/eV
      -------------------------------------------------------------
         1        2.0000           -0.5156518             -14.0316
         2        2.0000           -0.4728406             -12.8666
         3        2.0000           -0.4448610             -12.1053
         4        2.0000           -0.4082821             -11.1099
         5        2.0000           -0.3880060             -10.5582
         6        2.0000           -0.3542866              -9.6406
         7        2.0000           -0.3473904              -9.4530
         8        2.0000           -0.3269970              -8.8980
         9        2.0000           -0.3096717              -8.4266
        10        0.6815           -0.2608417              -7.0979 (HOMO)
        11        0.3185           -0.2593963              -7.0585 (LUMO)
        12                         -0.2059128              -5.6032
        13                         -0.1374844              -3.7411
        14                         -0.1123060              -3.0560
        15                         -0.0819535              -2.2301
        16                         -0.0241114              -0.6561
        17                          0.1315431               3.5795
        18                          0.1957274               5.3260
        19                          0.2233544               6.0778
        20                          0.2904134               7.9026
        21                          0.4415028              12.0139
       ...                                ...                  ...
        24                          1.0435960              28.3977
      -------------------------------------------------------------
                  HL-Gap            0.0014454 Eh            0.0393 eV

     #   Z          covCN         q      C6AA      α(0)
     1   4 Be       1.785     0.404    14.841     8.936
     2   5 B        1.881    -0.027    45.443    14.194
     3   5 B        2.850     0.055    20.487     7.558
     4   5 B        2.192     0.104    36.365    12.372
     5   6 C        2.732    -0.190    32.975     9.401
     6   1 H        0.926    -0.025     3.522     2.935
     7   1 H        0.882    -0.337    30.308     8.618
     8   1 H        0.499     0.050     3.552     3.222
     9   1 H        0.188    -0.035     9.166     5.526

Wiberg/Mayer (AO) data.
largest (>0.10) Wiberg bond orders for each atom

     #   Z sym  total        # sym  WBO       # sym  WBO       # sym  WBO
 ---------------------------------------------------------------------------
     1   4 Be   1.932 --     2 B    1.012     7 H    0.880
     2   5 B    2.545 --     3 B    1.331     1 Be   1.012     4 B    0.120
     3   5 B    3.444 --     2 B    1.331     4 B    1.015     5 C    0.987
     4   5 B    3.265 --     5 C    1.790     3 B    1.015     8 H    0.273
                             2 B    0.120
     5   6 C    3.849 --     4 B    1.790     3 B    0.987     6 H    0.975
     6   1 H    0.998 --     5 C    0.975
     7   1 H    0.886 --     1 Be   0.880
     8   1 H    0.988 --     9 H    0.710     4 B    0.273
     9   1 H    0.887 --     8 H    0.710
 ---------------------------------------------------------------------------

molecular dipole:
                 x           y           z       tot (Debye)
 q only:       -0.004      -0.422       0.351
   full:       -0.126      -0.234       0.667       1.826

           -------------------------------------------------
          | TOTAL ENERGY               -8.273443240744 Eh   |
          | GRADIENT NORM               0.000670126520 Eh/α |
Note: The following floating-point exceptions are signalling: IEEE_UNDERFLOW_FLAG
normal termination of xtb
          | HOMO-LUMO GAP               0.039331263897 eV   |
           -------------------------------------------------

 * finished run on 2025/06/07 at 03:27:45.427
