   * xtb version 6.5.1 (conda-forge) compiled by 'runner@Mac-1657629245115.local' on 2022-07-12
          program call               : xtb B3BeH5.xyz --gfn 2 --opt

   ID    Z sym.   atoms
    1    4 Be     1
    2    5 B      2-4
    3    1 H      5-9

          :  Hamiltonian                  GFN2-xTB          :
 * total energy  :    -6.0927313 Eh     change        0.4497931E-09 Eh
 * total energy  :    -6.2403200 Eh     change       -0.1475888E+00 Eh
 * total energy  :    -6.3845911 Eh     change       -0.1442711E+00 Eh
 * total energy  :    -6.4445585 Eh     change       -0.5996737E-01 Eh
 * total energy  :    -6.4869903 Eh     change       -0.4243178E-01 Eh
 * total energy  :    -6.5098300 Eh     change       -0.2283972E-01 Eh
 * total energy  :    -6.5523053 Eh     change       -0.4247532E-01 Eh
 * total energy  :    -6.5745391 Eh     change       -0.2223378E-01 Eh
 * total energy  :    -6.5814809 Eh     change       -0.6941817E-02 Eh
 * total energy  :    -6.5871727 Eh     change       -0.5691836E-02 Eh
 * total energy  :    -6.6128742 Eh     change       -0.2676357E-04 Eh
 * total energy  :    -6.6129480 Eh     change       -0.7376941E-04 Eh
 * total energy  :    -6.6130132 Eh     change       -0.6523662E-04 Eh
 * total energy  :    -6.6130591 Eh     change       -0.4591561E-04 Eh
 * total energy  :    -6.6130816 Eh     change       -0.2246288E-04 Eh
 * total energy  :    -6.6130587 Eh     change        0.2285584E-04 Eh
 * total energy  :    -6.6131156 Eh     change       -0.5683934E-04 Eh
 * total energy  :    -6.6131212 Eh     change       -0.5600933E-05 Eh
 * total energy  :    -6.6131247 Eh     change       -0.3520630E-05 Eh
   *** GEOMETRY OPTIMIZATION CONVERGED AFTER 67 ITERATIONS ***

 final structure:
================
9
 xtb: 6.5.1 (conda-forge)
Be           0.07438013166637        1.14538944777201        0.97152304203326
B            0.67951946317848       -0.33231980383025        1.33696396150049
B            1.20325780050282        0.76724468721969        2.40164628548188
B            1.67795493823844       -0.62964432959038        2.65300595029291
H            2.20114021729554       -1.57834183893367        3.11133762369271
H            2.12685606194106        2.02834979309581        3.51851122268079
H            2.43577861724284        2.69337471789499        3.94147155638195
H           -0.05649328623505        0.12860020162759        4.50031257608051
H           -0.48639394383485        0.14059412454918        5.16972778179850

          :  Hamiltonian                  GFN2-xTB          :
         :: total energy              -6.613124694569 Eh    ::
         :: gradient norm              0.000818630443 Eh/a0 ::
         :: HOMO-LUMO gap              1.269198850079 eV    ::
         :: SCC energy                -6.744878159021 Eh    ::
         :: -> dispersion             -0.003173559559 Eh    ::
         :: repulsion energy           0.131747966826 Eh    ::

    * Orbital Energies and Occupations

         #    Occupation            Energy/Eh            Energy/eV
      -------------------------------------------------------------
         1        2.0000           -0.4439605             -12.0808
         2        2.0000           -0.4370167             -11.8918
         3        2.0000           -0.4007303             -10.9044
         4        2.0000           -0.3681101             -10.0168
         5        2.0000           -0.3170220              -8.6266
         6        2.0000           -0.2833262              -7.7097
         7        2.0000           -0.2700773              -7.3492
         8        2.0000           -0.2411511              -6.5621 (HOMO)
         9                         -0.1945089              -5.2929 (LUMO)
        10                         -0.1517538              -4.1294
        11                         -0.1384212              -3.7666
        12                         -0.0745332              -2.0282
        13                         -0.0076406              -0.2079
        14                          0.0035102               0.0955
        15                          0.1522028               4.1416
        16                          0.1867399               5.0815
        17                          0.2431898               6.6175
        18                          0.3891262              10.5887
        19                          0.5974982              16.2588
       ...                                ...                  ...
        21                          1.1233672              30.5684
      -------------------------------------------------------------
                  HL-Gap            0.0466422 Eh            1.2692 eV

     #   Z          covCN         q      C6AA      α(0)
     1   4 Be       1.803     0.362    15.257     9.053
     2   5 B        2.836    -0.088    23.084     8.024
     3   5 B        2.838    -0.064    22.612     7.941
     4   5 B        2.872     0.047    20.618     7.580
     5   1 H        0.937    -0.177     9.199     4.742
     6   1 H        0.524     0.011     4.114     3.427
     7   1 H        0.524    -0.062     6.324     4.250
     8   1 H        0.749     0.008     3.036     2.750
     9   1 H        0.749    -0.037     3.924     3.127

Wiberg/Mayer (AO) data.
largest (>0.10) Wiberg bond orders for each atom

     #   Z sym  total        # sym  WBO       # sym  WBO       # sym  WBO
 ---------------------------------------------------------------------------
     1   4 Be   2.184 --     2 B    1.340     3 B    0.702     4 B    0.124
     2   5 B    3.511 --     1 Be   1.340     3 B    1.199     4 B    0.919
     3   5 B    3.560 --     4 B    1.510     2 B    1.199     1 Be   0.702
                             6 H    0.101
     4   5 B    3.599 --     3 B    1.510     5 H    0.953     2 B    0.919
                             1 Be   0.124
     5   1 H    0.969 --     4 B    0.953
     6   1 H    1.000 --     7 H    0.881     3 B    0.101
     7   1 H    0.996 --     6 H    0.881
     8   1 H    1.000 --     9 H    0.966
     9   1 H    0.999 --     8 H    0.966
 ---------------------------------------------------------------------------

molecular dipole:
                 x           y           z       tot (Debye)
 q only:       -1.003       0.937      -1.334
   full:       -1.180       1.707      -1.307       6.234

           -------------------------------------------------
          | TOTAL ENERGY               -6.613124694569 Eh   |
          | GRADIENT NORM               0.000818630443 Eh/α |
          | HOMO-LUMO GAP               1.269198850079 eV   |
           -------------------------------------------------

normal termination of xtb
 * finished run on 2025/06/07 at 03:27:46.553
