   * xtb version 6.5.1 (conda-forge) compiled by 'runner@Mac-1657629245115.local' on 2022-07-12
          program call               : xtb B3BeH4.xyz --gfn 2 --opt

   ID    Z sym.   atoms
    1    4 Be     1
    2    5 B      2-4
    3    1 H      5-8

          :  Hamiltonian                  GFN2-xTB          :
 * total energy  :    -5.5759398 Eh     change        0.6091687E-09 Eh
 * total energy  :    -5.7278449 Eh     change       -0.1519051E+00 Eh
 * total energy  :    -5.8696712 Eh     change       -0.1418264E+00 Eh
 * total energy  :    -5.9529446 Eh     change       -0.8327338E-01 Eh
 * total energy  :    -6.0261778 Eh     change       -0.7323318E-01 Eh
 * total energy  :    -6.0696913 Eh     change       -0.4351352E-01 Eh
 * total energy  :    -6.0911530 Eh     change       -0.2146172E-01 Eh
 * total energy  :    -6.1101161 Eh     change       -0.1896313E-01 Eh
 * total energy  :    -6.1034921 Eh     change        0.6624090E-02 Eh
 * total energy  :    -6.1157903 Eh     change       -0.1229828E-01 Eh
 * total energy  :    -6.1621396 Eh     change       -0.4755077E-04 Eh
 * total energy  :    -6.1621680 Eh     change       -0.2838703E-04 Eh
 * total energy  :    -6.1621887 Eh     change       -0.2075887E-04 Eh
 * total energy  :    -6.1622013 Eh     change       -0.1254203E-04 Eh
 * total energy  :    -6.1621148 Eh     change        0.8645892E-04 Eh
 * total energy  :    -6.1621999 Eh     change       -0.8510355E-04 Eh
 * total energy  :    -6.1622021 Eh     change       -0.2182926E-05 Eh
 * total energy  :    -6.1622169 Eh     change       -0.1473515E-04 Eh
 * total energy  :    -6.1622195 Eh     change       -0.2663697E-05 Eh
   *** GEOMETRY OPTIMIZATION CONVERGED AFTER 73 ITERATIONS ***

 final structure:
================
8
 xtb: 6.5.1 (conda-forge)
Be          -0.51183180725290        0.54738129743237       -0.36005356028198
B            0.52316639920458        0.45110617377250        0.93146600364162
B            1.44260788758927        0.35372998614980        2.10702334119696
B            2.42337410439848        0.23793560888422        3.33611527655875
H            2.64512054293577       -0.78032318414514        3.90993813297210
H            3.02884930045816        1.15571177881927        3.79009019912131
H           -0.19788249328581        0.57700667493155        4.07694452384491
H           -0.72940393404596        0.64776166415369        4.65947608294356

          :  Hamiltonian                  GFN2-xTB          :
         :: total energy              -6.162219514689 Eh    ::
         :: gradient norm              0.000414264063 Eh/a0 ::
         :: HOMO-LUMO gap              1.392550683380 eV    ::
         :: SCC energy                -6.271247854109 Eh    ::
         :: -> dispersion             -0.003745358626 Eh    ::
         :: repulsion energy           0.109024874820 Eh    ::

    * Orbital Energies and Occupations

         #    Occupation            Energy/Eh            Energy/eV
      -------------------------------------------------------------
         1        2.0000           -0.4330989             -11.7852
         2        2.0000           -0.4096199             -11.1463
         3        2.0000           -0.3832529             -10.4288
         4        2.0000           -0.3463687              -9.4252
         5        2.0000           -0.3321990              -9.0396
         6        2.0000           -0.2902316              -7.8976
         7        1.9986           -0.2604541              -7.0873
         8        1.0014           -0.2479673              -6.7475 (HOMO)
         9                         -0.1967920              -5.3550 (LUMO)
        10                         -0.1877153              -5.1080
        11                         -0.1485102              -4.0412
        12                         -0.1056886              -2.8759
        13                         -0.0036076              -0.0982
        14                          0.0245253               0.6674
        15                          0.1627920               4.4298
        16                          0.4072295              11.0813
        17                          0.4499455              12.2436
        18                          0.5362519              14.5922
        19                          0.8243017              22.4304
        20                          1.0642861              28.9607
      -------------------------------------------------------------
                  HL-Gap            0.0511753 Eh            1.3926 eV

     #   Z          covCN         q      C6AA      α(0)
     1   4 Be       0.912     0.328    68.903    24.896
     2   5 B        1.890    -0.131    49.544    14.820
     3   5 B        1.953     0.018    43.487    13.870
     4   5 B        2.837     0.118    19.484     7.372
     5   1 H        0.932    -0.156     8.018     4.427
     6   1 H        0.932    -0.156     8.012     4.426
     7   1 H        0.763     0.018     2.856     2.664
     8   1 H        0.763    -0.038     3.924     3.122

Wiberg/Mayer (AO) data.
largest (>0.10) Wiberg bond orders for each atom

     #   Z sym  total        # sym  WBO       # sym  WBO       # sym  WBO
 ---------------------------------------------------------------------------
     1   4 Be   1.752 --     2 B    1.363     3 B    0.315
     2   5 B    3.182 --     3 B    1.624     1 Be   1.363     4 B    0.178
     3   5 B    3.207 --     2 B    1.624     4 B    1.202     1 Be   0.315
     4   5 B    3.336 --     3 B    1.202     6 H    0.939     5 H    0.938
                             2 B    0.178
     5   1 H    0.962 --     4 B    0.938
     6   1 H    0.962 --     4 B    0.939
     7   1 H    1.000 --     8 H    0.974
     8   1 H    0.999 --     7 H    0.974
 ---------------------------------------------------------------------------

molecular dipole:
                 x           y           z       tot (Debye)
 q only:       -1.490       0.155      -2.111
   full:       -2.195       0.216      -2.956       9.374

           -------------------------------------------------
          | TOTAL ENERGY               -6.162219514689 Eh   |
          | GRADIENT NORM               0.000414264063 Eh/α |
          | HOMO-LUMO GAP               1.392550683380 eV   |
           -------------------------------------------------

 * finished run on 2025/06/07 at 03:27:46.364
normal termination of xtb
