   * xtb version 6.5.1 (conda-forge) compiled by 'runner@Mac-1657629245115.local' on 2022-07-12
          program call               : xtb B3BeC3H5.xyz --gfn 2 --opt

   ID    Z sym.   atoms
    1    4 Be     1
    2    5 B      2-4
    3    6 C      5-7
    4    1 H      8-12

          :  Hamiltonian                  GFN2-xTB          :
 * total energy  :   -12.0767522 Eh     change        0.4239697E-08 Eh
 * total energy  :   -12.2857786 Eh     change       -0.2090264E+00 Eh
 * total energy  :   -12.5068205 Eh     change       -0.2210419E+00 Eh
 * total energy  :   -12.5868686 Eh     change       -0.8004808E-01 Eh
 * total energy  :   -12.6399284 Eh     change       -0.5305987E-01 Eh
 * total energy  :   -12.6752423 Eh     change       -0.3531382E-01 Eh
 * total energy  :   -12.7118687 Eh     change       -0.3662646E-01 Eh
 * total energy  :   -12.7345551 Eh     change       -0.2268635E-01 Eh
 * total energy  :   -12.7498484 Eh     change       -0.1529328E-01 Eh
 * total energy  :   -12.7566796 Eh     change       -0.6831213E-02 Eh
 * total energy  :   -12.9444989 Eh     change       -0.7477989E-05 Eh
 * total energy  :   -12.9445083 Eh     change       -0.9346260E-05 Eh
 * total energy  :   -12.9445019 Eh     change        0.6351516E-05 Eh
 * total energy  :   -12.9445190 Eh     change       -0.1703209E-04 Eh
 * total energy  :   -12.9445224 Eh     change       -0.3392329E-05 Eh
 * total energy  :   -12.9445310 Eh     change       -0.8626083E-05 Eh
 * total energy  :   -12.9445329 Eh     change       -0.1891755E-05 Eh
 * total energy  :   -12.9445392 Eh     change       -0.6287324E-05 Eh
 * total energy  :   -12.9445418 Eh     change       -0.2654721E-05 Eh
   *** GEOMETRY OPTIMIZATION CONVERGED AFTER 71 ITERATIONS ***

 final structure:
================
12
 xtb: 6.5.1 (conda-forge)
Be           0.77505659054759        0.01617778821998        0.07956533313740
B            1.24727510296520        1.49412197988959        0.81656543519680
B            1.70966979112140        1.38800897985363        2.25348420428322
B            1.47459332473886       -0.26335684357381        1.62688967146786
C            1.36003061086315        0.20620831815560        3.04315282308985
C            0.88843519513930       -0.19392113029968        4.27194659849461
C            0.53678595456785       -0.54017661898779        5.37646131641889
H            0.21605414505266       -0.85393609708656        6.32521107103336
H            2.01461500426870        1.43064248884225        6.16004313768243
H            2.43652931667136        1.97084069738747        6.53921233216577
H            0.65661118511805        0.76682479250700        8.52268673785613
H            0.23634377893147        0.40885964497729        9.07178133909736

          :  Hamiltonian                  GFN2-xTB          :
         :: total energy             -12.944541811125 Eh    ::
         :: gradient norm              0.000445946125 Eh/a0 ::
         :: HOMO-LUMO gap              1.059779064188 eV    ::
         :: SCC energy               -13.271823680570 Eh    ::
         :: -> dispersion             -0.005636285046 Eh    ::
         :: repulsion energy           0.327293588583 Eh    ::

    * Orbital Energies and Occupations

         #    Occupation            Energy/Eh            Energy/eV
      -------------------------------------------------------------
         1        2.0000           -0.5533879             -15.0585
         2        2.0000           -0.5148000             -14.0084
         3        2.0000           -0.4643077             -12.6345
         4        2.0000           -0.4524612             -12.3121
         5        2.0000           -0.4387669             -11.9395
         6        2.0000           -0.4275816             -11.6351
         7        2.0000           -0.3939593             -10.7202
         8        2.0000           -0.3869365             -10.5291
         9        2.0000           -0.3754738             -10.2172
        10        2.0000           -0.3462303              -9.4214
        11        2.0000           -0.3144416              -8.5564
        12        2.0000           -0.3124930              -8.5034
        13        2.0000           -0.2869206              -7.8075
        14        2.0000           -0.2583801              -7.0309 (HOMO)
        15                         -0.2194339              -5.9711 (LUMO)
        16                         -0.1762741              -4.7967
        17                         -0.1519652              -4.1352
        18                         -0.1291821              -3.5152
        19                         -0.1183102              -3.2194
        20                         -0.0781702              -2.1271
        21                         -0.0197255              -0.5368
        22                         -0.0094645              -0.2575
        23                          0.0536852               1.4608
        24                          0.1327440               3.6121
        25                          0.1505407               4.0964
       ...                                ...                  ...
        33                          1.4934124              40.6378
      -------------------------------------------------------------
                  HL-Gap            0.0389462 Eh            1.0598 eV

     #   Z          covCN         q      C6AA      α(0)
     1   4 Be       1.834     0.357    15.262     9.045
     2   5 B        2.582    -0.076    23.873     8.324
     3   5 B        2.802     0.060    20.444     7.556
     4   5 B        3.409    -0.022    21.797     7.780
     5   6 C        2.795    -0.142    31.631     9.213
     6   6 C        1.962    -0.046    32.311     9.179
     7   6 C        1.910    -0.145    35.216     9.584
     8   1 H        0.928     0.023     2.682     2.561
     9   1 H        0.792     0.017     2.840     2.649
    10   1 H        0.792    -0.025     3.602     2.984
    11   1 H        0.808     0.008     2.980     2.711
    12   1 H        0.808    -0.008     3.263     2.837

Wiberg/Mayer (AO) data.
largest (>0.10) Wiberg bond orders for each atom

     #   Z sym  total        # sym  WBO       # sym  WBO       # sym  WBO
 ---------------------------------------------------------------------------
     1   4 Be   2.084 --     2 B    1.002     4 B    0.957
     2   5 B    3.231 --     3 B    1.407     1 Be   1.002     4 B    0.577
                             5 C    0.170
     3   5 B    3.465 --     2 B    1.407     5 C    1.276     4 B    0.572
                             7 C    0.110
     4   5 B    3.400 --     5 C    1.190     1 Be   0.957     2 B    0.577
                             3 B    0.572
     5   6 C    3.944 --     3 B    1.276     6 C    1.237     4 B    1.190
                             2 B    0.170
     6   6 C    3.972 --     7 C    2.679     5 C    1.237
     7   6 C    3.956 --     6 C    2.679     8 H    0.976     3 B    0.110
     8   1 H    0.998 --     7 C    0.976
     9   1 H    1.000 --    10 H    0.989
    10   1 H    0.999 --     9 H    0.989
    11   1 H    1.000 --    12 H    0.998
    12   1 H    1.000 --    11 H    0.998
 ---------------------------------------------------------------------------

molecular dipole:
                 x           y           z       tot (Debye)
 q only:       -0.149      -0.007      -2.395
   full:       -0.111      -0.427      -2.187       5.670

normal termination of xtb

           -------------------------------------------------
          | TOTAL ENERGY              -12.944541811125 Eh   |
          | GRADIENT NORM               0.000445946125 Eh/α |
          | HOMO-LUMO GAP               1.059779064188 eV   |
           -------------------------------------------------

 * finished run on 2025/06/07 at 03:27:44.943
