   * xtb version 6.5.1 (conda-forge) compiled by 'runner@Mac-1657629245115.local' on 2022-07-12
          program call               : xtb BBe2C2H4.xyz --gfn 2 --opt

   ID    Z sym.   atoms
    1    4 Be     1, 2
    2    5 B      3
    3    6 C      4, 5
    4    1 H      6-9

          :  Hamiltonian                  GFN2-xTB          :
         :: total energy              -8.035195688167 Eh    ::
         :: gradient norm              0.302767717409 Eh/a0 ::
         :: HOMO-LUMO gap              0.146225072260 eV    ::
         :: SCC energy                -8.094240592353 Eh    ::
         :: -> dispersion             -0.006240911934 Eh    ::
         :: repulsion energy           0.059054437436 Eh    ::
 * total energy  :    -8.0351957 Eh     change       -0.1329248E-10 Eh
 * total energy  :    -8.1868052 Eh     change       -0.1516095E+00 Eh
 * total energy  :    -8.2765268 Eh     change       -0.8972156E-01 Eh
 * total energy  :    -8.3374999 Eh     change       -0.6097307E-01 Eh
 * total energy  :    -8.3881787 Eh     change       -0.5067885E-01 Eh
 * total energy  :    -8.4357863 Eh     change       -0.4760762E-01 Eh

 final structure:
================
9
 xtb: 6.5.1 (conda-forge)
Be           0.00000000000000        0.00000000000000        0.00000000000000
Be           2.68800000000000        0.00000000000000        0.00000000000000
B            4.82200000000000        0.00000000000000        1.06700000000000
C            6.57100000000000        0.00000000000000        1.94150000000000
C            4.87700000000000        0.00000000000000        2.78850000000000
H            6.13100000000000        0.00000000000000        3.41550000000000
H            6.13100000000000        0.81400000000000        3.82250000000000
H            5.31700000000000        0.81400000000000        4.22950000000000
H            5.31700000000000        0.00000000000000        4.63650000000000

          :  Hamiltonian                  GFN2-xTB          :
abnormal termination of xtb
