   * xtb version 6.5.1 (conda-forge) compiled by 'runner@Mac-1657629245115.local' on 2022-07-12
          program call               : xtb BBeC3H4.xyz --gfn 2 --opt

   ID    Z sym.   atoms
    1    4 Be     1
    2    5 B      2
    3    6 C      3-5
    4    1 H      6-9

          :  Hamiltonian                  GFN2-xTB          :
 * total energy  :    -9.3586169 Eh     change        0.1137899E-08 Eh
 * total energy  :    -9.5430979 Eh     change       -0.1844810E+00 Eh
 * total energy  :    -9.7016792 Eh     change       -0.1585812E+00 Eh
 * total energy  :    -9.7408846 Eh     change       -0.3920545E-01 Eh
 * total energy  :    -9.7864147 Eh     change       -0.4553010E-01 Eh
 * total energy  :    -9.8329926 Eh     change       -0.4657788E-01 Eh
 * total energy  :    -9.8730786 Eh     change       -0.4008599E-01 Eh
 * total energy  :    -9.8943000 Eh     change       -0.2122137E-01 Eh
 * total energy  :    -9.9324251 Eh     change       -0.3812513E-01 Eh
 * total energy  :    -9.9578701 Eh     change       -0.2544496E-01 Eh
 * total energy  :   -10.1053803 Eh     change       -0.2692886E-04 Eh
 * total energy  :   -10.1053979 Eh     change       -0.1761456E-04 Eh
 * total energy  :   -10.1054248 Eh     change       -0.2691448E-04 Eh
 * total energy  :   -10.1054438 Eh     change       -0.1896895E-04 Eh
 * total energy  :   -10.1054567 Eh     change       -0.1290071E-04 Eh
 * total energy  :   -10.1054679 Eh     change       -0.1115492E-04 Eh
 * total energy  :   -10.1054762 Eh     change       -0.8368430E-05 Eh
 * total energy  :   -10.1054826 Eh     change       -0.6364483E-05 Eh
 * total energy  :   -10.1054872 Eh     change       -0.4591577E-05 Eh
   *** GEOMETRY OPTIMIZATION CONVERGED AFTER 60 ITERATIONS ***

 final structure:
================
9
 xtb: 6.5.1 (conda-forge)
Be           0.47134170241362        0.15603378280808       -0.58607421680345
B            1.47870024208993        0.22437024108125        0.71426980262222
C            2.32123320302543        0.26997087498019        1.81926410300665
C            3.09544031253278        0.31099443053250        2.82973879103924
C            3.88360430256019        0.35872424000034        3.88219109873530
H            4.22078289025959       -0.53781122958207        4.38571632931819
H            4.26122582443730        1.29481302351950        4.27143420740723
H            2.05657282899614        0.48278582123409        5.48627692619997
H            1.59709869368350        0.53516581542873        6.12168295847297

          :  Hamiltonian                  GFN2-xTB          :
         :: total energy             -10.105487178273 Eh    ::
         :: gradient norm              0.000489854444 Eh/a0 ::
         :: HOMO-LUMO gap              0.857480681929 eV    ::
         :: SCC energy               -10.359492493443 Eh    ::
         :: -> dispersion             -0.004468869868 Eh    ::
         :: repulsion energy           0.254009119876 Eh    ::

    * Orbital Energies and Occupations

         #    Occupation            Energy/Eh            Energy/eV
      -------------------------------------------------------------
         1        2.0000           -0.5447696             -14.8239
         2        2.0000           -0.5148552             -14.0099
         3        2.0000           -0.4515603             -12.2876
         4        2.0000           -0.4326830             -11.7739
         5        2.0000           -0.4301723             -11.7056
         6        2.0000           -0.4060490             -11.0492
         7        2.0000           -0.3716557             -10.1133
         8        2.0000           -0.3482755              -9.4771
         9        2.0000           -0.3361404              -9.1468
        10        2.0000           -0.2832078              -7.7065
        11        1.0000           -0.2360880              -6.4243 (HOMO)
        12                         -0.2045761              -5.5668 (LUMO)
        13                         -0.2029604              -5.5228
        14                         -0.1347436              -3.6666
        15                         -0.0962695              -2.6196
        16                          0.0133708               0.3638
        17                          0.0339053               0.9226
        18                          0.1578506               4.2953
        19                          0.1900602               5.1718
        20                          0.3501512               9.5281
        21                          0.3702920              10.0762
        22                          0.7107348              19.3401
       ...                                ...                  ...
        24                          1.3393683              36.4461
      -------------------------------------------------------------
                  HL-Gap            0.0315118 Eh            0.8575 eV

     #   Z          covCN         q      C6AA      α(0)
     1   4 Be       0.912     0.362    67.234    24.593
     2   5 B        1.820    -0.055    46.696    14.395
     3   6 C        1.889    -0.154    35.489     9.621
     4   6 C        1.962    -0.039    32.107     9.151
     5   6 C        2.832    -0.116    30.919     9.112
     6   1 H        0.925     0.006     2.950     2.686
     7   1 H        0.925     0.006     2.949     2.685
     8   1 H        0.784     0.017     2.845     2.653
     9   1 H        0.784    -0.029     3.704     3.028

Wiberg/Mayer (AO) data.
largest (>0.10) Wiberg bond orders for each atom

     #   Z sym  total        # sym  WBO       # sym  WBO       # sym  WBO
 ---------------------------------------------------------------------------
     1   4 Be   1.522 --     2 B    1.328     3 C    0.166
     2   5 B    3.328 --     3 C    1.758     1 Be   1.328     5 C    0.208
     3   6 C    3.954 --     4 C    1.952     2 B    1.758     1 Be   0.166
     4   6 C    3.768 --     3 C    1.952     5 C    1.740
     5   6 C    3.889 --     4 C    1.740     6 H    0.949     7 H    0.949
                             2 B    0.208
     6   1 H    0.983 --     5 C    0.949
     7   1 H    0.982 --     5 C    0.949
     8   1 H    1.000 --     9 H    0.983
     9   1 H    0.995 --     8 H    0.983
 ---------------------------------------------------------------------------

molecular dipole:
                 x           y           z       tot (Debye)
 q only:       -1.499      -0.101      -2.114
   full:       -2.157      -0.141      -2.962       9.321

           -------------------------------------------------
          | TOTAL ENERGY              -10.105487178273 Eh   |
          | GRADIENT NORM               0.000489854444 Eh/α |
          | HOMO-LUMO GAP               0.857480681929 eV   |
           -------------------------------------------------

normal termination of xtb
 * finished run on 2025/06/07 at 03:27:48.736
