   * xtb version 6.5.1 (conda-forge) compiled by 'runner@Mac-1657629245115.local' on 2022-07-12
          program call               : xtb BBeC2H4.xyz --gfn 2 --opt

   ID    Z sym.   atoms
    1    4 Be     1
    2    5 B      2
    3    6 C      3, 4
    4    1 H      5-8

          :  Hamiltonian                  GFN2-xTB          :
 * total energy  :    -7.4210530 Eh     change        0.1159622E-08 Eh
 * total energy  :    -7.5713707 Eh     change       -0.1503177E+00 Eh
 * total energy  :    -7.6589281 Eh     change       -0.8755740E-01 Eh
 * total energy  :    -7.7241478 Eh     change       -0.6521973E-01 Eh
 * total energy  :    -7.7741549 Eh     change       -0.5000710E-01 Eh
 * total energy  :    -7.8057364 Eh     change       -0.3158152E-01 Eh
 * total energy  :    -7.8130410 Eh     change       -0.7304526E-02 Eh
 * total energy  :    -7.8260150 Eh     change       -0.1297404E-01 Eh
 * total energy  :    -7.8264002 Eh     change       -0.3851571E-03 Eh
 * total energy  :    -7.8398565 Eh     change       -0.1345636E-01 Eh
 * total energy  :    -7.9756211 Eh     change       -0.8994612E-05 Eh
 * total energy  :    -7.9756277 Eh     change       -0.6508546E-05 Eh
 * total energy  :    -7.9756392 Eh     change       -0.1158559E-04 Eh
 * total energy  :    -7.9756493 Eh     change       -0.1009888E-04 Eh
 * total energy  :    -7.9756670 Eh     change       -0.1762406E-04 Eh
 * total energy  :    -7.9756756 Eh     change       -0.8637552E-05 Eh
 * total energy  :    -7.9756827 Eh     change       -0.7084098E-05 Eh
 * total energy  :    -7.9756900 Eh     change       -0.7303234E-05 Eh
 * total energy  :    -7.9756946 Eh     change       -0.4619860E-05 Eh
   *** GEOMETRY OPTIMIZATION CONVERGED AFTER 63 ITERATIONS ***

 final structure:
================
8
 xtb: 6.5.1 (conda-forge)
Be           0.63788632044851        0.32616087747149        0.02671982057499
B            1.66666819923785       -0.41897704974642        1.22901236115621
C            2.95804680515246       -0.16346378204902        1.97727314755176
C            1.88491852308932       -0.43476390815146        2.72741983503333
H            4.00120818324740        0.05274582691597        2.12622143795734
H            4.01593964432637        1.24773175600972        5.28549559658073
H            3.53717508873599        1.56006085326637        4.75792897191839
H            1.64815723576038       -0.54149457371778        3.77092882922745

          :  Hamiltonian                  GFN2-xTB          :
         :: total energy              -7.975694610326 Eh    ::
         :: gradient norm              0.000578269549 Eh/a0 ::
         :: HOMO-LUMO gap              1.260062928729 eV    ::
         :: SCC energy                -8.139867218676 Eh    ::
         :: -> dispersion             -0.003200864547 Eh    ::
         :: repulsion energy           0.164173395561 Eh    ::

    * Orbital Energies and Occupations

         #    Occupation            Energy/Eh            Energy/eV
      -------------------------------------------------------------
         1        2.0000           -0.5568331             -15.1522
         2        2.0000           -0.4905871             -13.3496
         3        2.0000           -0.4596566             -12.5079
         4        2.0000           -0.4535285             -12.3411
         5        2.0000           -0.3862253             -10.5097
         6        2.0000           -0.3794928             -10.3265
         7        2.0000           -0.3283943              -8.9361
         8        2.0000           -0.3194796              -8.6935
         9        1.0000           -0.2154546              -5.8628 (HOMO)
        10                         -0.1691482              -4.6028 (LUMO)
        11                         -0.1609684              -4.3802
        12                         -0.1327763              -3.6130
        13                         -0.0646278              -1.7586
        14                          0.0834200               2.2700
        15                          0.1341897               3.6515
        16                          0.2276899               6.1958
        17                          0.2331537               6.3444
        18                          0.6182641              16.8238
        19                          0.6303662              17.1531
        20                          0.7522942              20.4710
      -------------------------------------------------------------
                  HL-Gap            0.0463065 Eh            1.2601 eV

     #   Z          covCN         q      C6AA      α(0)
     1   4 Be       0.907     0.264    72.220    25.489
     2   5 B        2.716     0.010    21.439     7.762
     3   6 C        2.811    -0.113    30.840     9.099
     4   6 C        2.811    -0.113    30.841     9.099
     5   1 H        0.926    -0.024     3.518     2.933
     6   1 H        0.810    -0.004     3.179     2.800
     7   1 H        0.810     0.004     3.043     2.739
     8   1 H        0.926    -0.024     3.515     2.932

Wiberg/Mayer (AO) data.
largest (>0.10) Wiberg bond orders for each atom

     #   Z sym  total        # sym  WBO       # sym  WBO       # sym  WBO
 ---------------------------------------------------------------------------
     1   4 Be   1.056 --     2 B    0.984
     2   5 B    3.157 --     3 C    1.064     4 C    1.063     1 Be   0.984
     3   6 C    3.852 --     4 C    1.784     2 B    1.064     5 H    0.964
     4   6 C    3.852 --     3 C    1.784     2 B    1.063     8 H    0.964
     5   1 H    0.999 --     3 C    0.964
     6   1 H    1.000 --     7 H    0.999
     7   1 H    1.000 --     6 H    0.999
     8   1 H    0.999 --     4 C    0.964
 ---------------------------------------------------------------------------

molecular dipole:
                 x           y           z       tot (Debye)
 q only:       -0.947       0.306      -1.243
   full:       -0.396       0.089      -0.534       1.705

           -------------------------------------------------
          | TOTAL ENERGY               -7.975694610326 Eh   |
          | GRADIENT NORM               0.000578269549 Eh/α |
          | HOMO-LUMO GAP               1.260062928729 eV   |
           -------------------------------------------------

normal termination of xtb
 * finished run on 2025/06/07 at 03:27:47.890
