   * xtb version 6.5.1 (conda-forge) compiled by 'runner@Mac-1657629245115.local' on 2022-07-12
          program call               : xtb BBeC4H5.xyz --gfn 2 --opt

   ID    Z sym.   atoms
    1    4 Be     1
    2    5 B      2
    3    6 C      3-6
    4    1 H      7-11

          :  Hamiltonian                  GFN2-xTB          :
 * total energy  :   -11.8197210 Eh     change       -0.1787952E-07 Eh
 * total energy  :   -12.0377228 Eh     change       -0.2180017E+00 Eh
 * total energy  :   -12.2965179 Eh     change       -0.2587951E+00 Eh
 * total energy  :   -12.3753941 Eh     change       -0.7887618E-01 Eh
 * total energy  :   -12.4358227 Eh     change       -0.6042866E-01 Eh
 * total energy  :   -12.4697947 Eh     change       -0.3397199E-01 Eh
 * total energy  :   -12.5124897 Eh     change       -0.4269499E-01 Eh
 * total energy  :   -12.5283102 Eh     change       -0.1582052E-01 Eh
 * total energy  :   -12.5419609 Eh     change       -0.1365071E-01 Eh
 * total energy  :   -12.5412627 Eh     change        0.6982304E-03 Eh
 * total energy  :   -12.6636635 Eh     change       -0.2902143E-04 Eh
 * total energy  :   -12.6636812 Eh     change       -0.1770200E-04 Eh
 * total energy  :   -12.6636934 Eh     change       -0.1214577E-04 Eh
 * total energy  :   -12.6637093 Eh     change       -0.1596773E-04 Eh
 * total energy  :   -12.6637022 Eh     change        0.7158830E-05 Eh
 * total energy  :   -12.6637270 Eh     change       -0.2484677E-04 Eh
 * total energy  :   -12.6637304 Eh     change       -0.3347244E-05 Eh
 * total energy  :   -12.6637356 Eh     change       -0.5243020E-05 Eh
 * total energy  :   -12.6637373 Eh     change       -0.1737616E-05 Eh
   *** GEOMETRY OPTIMIZATION CONVERGED AFTER 73 ITERATIONS ***

 final structure:
================
11
 xtb: 6.5.1 (conda-forge)
Be           1.27992863038730        1.25253505309562       -1.43385371831178
B            1.79279518889605        0.80638449091313        0.05566282903065
C            2.23192487689192        0.41751936131283        1.34814424681125
C            2.61828668065350        0.08176362592751        2.48732544440686
C            3.02550305454059       -0.29509417842514        3.69903465735356
C            3.40994513292298       -0.57335937101847        4.82153468976792
H            3.72058635724965       -0.91518637020969        5.76251877281636
H            3.69459671857093        1.82116476909916        5.44910412403634
H            3.80831168330856        2.48624533862817        5.84862072171989
H            2.05565489632531        0.75035822825333        7.43282049911326
H            1.82046678022414        0.35660605242141        8.06158773316177

          :  Hamiltonian                  GFN2-xTB          :
         :: total energy             -12.663737336331 Eh    ::
         :: gradient norm              0.000489543756 Eh/a0 ::
         :: HOMO-LUMO gap              0.131491873963 eV    ::
         :: SCC energy               -13.036176827758 Eh    ::
         :: -> dispersion             -0.005476745922 Eh    ::
         :: repulsion energy           0.372466704207 Eh    ::

    * Orbital Energies and Occupations

         #    Occupation            Energy/Eh            Energy/eV
      -------------------------------------------------------------
         1        2.0000           -0.5570726             -15.1587
         2        2.0000           -0.5400492             -14.6955
         3        2.0000           -0.4988247             -13.5737
         4        2.0000           -0.4511637             -12.2768
         5        2.0000           -0.4454395             -12.1210
         6        2.0000           -0.4351586             -11.8413
         7        2.0000           -0.4151397             -11.2965
         8        2.0000           -0.3967400             -10.7958
         9        2.0000           -0.3942351             -10.7277
        10        2.0000           -0.3524797              -9.5915
        11        2.0000           -0.3369059              -9.1677
        12        2.0000           -0.3363441              -9.1524
        13        1.8542           -0.2460750              -6.6960 (HOMO)
        14        0.1458           -0.2412428              -6.5646 (LUMO)
        15                         -0.1972811              -5.3683
        16                         -0.1629637              -4.4345
        17                         -0.1576508              -4.2899
        18                         -0.0606123              -1.6493
        19                         -0.0555238              -1.5109
        20                          0.0397847               1.0826
        21                          0.0416221               1.1326
        22                          0.1253634               3.4113
        23                          0.1448208               3.9408
        24                          0.1615467               4.3959
       ...                                ...                  ...
        29                          1.6285846              44.3160
      -------------------------------------------------------------
                  HL-Gap            0.0048322 Eh            0.1315 eV

     #   Z          covCN         q      C6AA      α(0)
     1   4 Be       0.912     0.362    67.234    24.593
     2   5 B        1.819    -0.053    46.632    14.386
     3   6 C        1.889    -0.127    34.670     9.510
     4   6 C        1.964    -0.054    32.522     9.209
     5   6 C        1.963    -0.022    31.665     9.087
     6   6 C        1.911    -0.130    34.748     9.520
     7   1 H        0.928     0.034     2.528     2.486
     8   1 H        0.790     0.016     2.853     2.656
     9   1 H        0.790    -0.025     3.613     2.989
    10   1 H        0.809     0.009     2.958     2.701
    11   1 H        0.809    -0.010     3.292     2.849

Wiberg/Mayer (AO) data.
largest (>0.10) Wiberg bond orders for each atom

     #   Z sym  total        # sym  WBO       # sym  WBO       # sym  WBO
 ---------------------------------------------------------------------------
     1   4 Be   1.720 --     2 B    1.519     4 C    0.111
     2   5 B    3.219 --     1 Be   1.519     3 C    1.471     4 C    0.119
     3   6 C    3.946 --     4 C    2.195     2 B    1.471     6 C    0.180
     4   6 C    3.834 --     3 C    2.195     5 C    1.358     2 B    0.119
                             1 Be   0.111
     5   6 C    3.965 --     6 C    2.542     4 C    1.358
     6   6 C    3.821 --     5 C    2.542     7 H    0.976     3 C    0.180
     7   1 H    0.998 --     6 C    0.976
     8   1 H    1.000 --     9 H    0.986
     9   1 H    0.998 --     8 H    0.986
    10   1 H    1.000 --    11 H    0.998
    11   1 H    1.000 --    10 H    0.998
 ---------------------------------------------------------------------------

molecular dipole:
                 x           y           z       tot (Debye)
 q only:       -0.899       0.705      -2.671
   full:       -1.209       0.950      -3.557       9.851

normal termination of xtb

           -------------------------------------------------
          | TOTAL ENERGY              -12.663737336331 Eh   |
          | GRADIENT NORM               0.000489543756 Eh/α |
          | HOMO-LUMO GAP               0.131491873963 eV   |
           -------------------------------------------------

 * finished run on 2025/06/07 at 03:27:50.562
