   * xtb version 6.5.1 (conda-forge) compiled by 'runner@Mac-1657629245115.local' on 2022-07-12
          program call               : xtb BBeC2H5.xyz --gfn 2 --opt

   ID    Z sym.   atoms
    1    4 Be     1
    2    5 B      2
    3    6 C      3, 4
    4    1 H      5-9

          :  Hamiltonian                  GFN2-xTB          :
 * total energy  :    -7.9546576 Eh     change       -0.5485212E-09 Eh
 * total energy  :    -8.1041138 Eh     change       -0.1494562E+00 Eh
 * total energy  :    -8.2001517 Eh     change       -0.9603793E-01 Eh
 * total energy  :    -8.2656057 Eh     change       -0.6545403E-01 Eh
 * total energy  :    -8.3013682 Eh     change       -0.3576248E-01 Eh
 * total energy  :    -8.3423404 Eh     change       -0.4097223E-01 Eh
 * total energy  :    -8.3719229 Eh     change       -0.2958251E-01 Eh
 * total energy  :    -8.3798393 Eh     change       -0.7916371E-02 Eh
 * total energy  :    -8.3923913 Eh     change       -0.1255198E-01 Eh
 * total energy  :    -8.3952640 Eh     change       -0.2872726E-02 Eh
 * total energy  :    -8.4053781 Eh     change       -0.2170271E-04 Eh
 * total energy  :    -8.4053997 Eh     change       -0.2168072E-04 Eh
 * total energy  :    -8.4054094 Eh     change       -0.9635343E-05 Eh
 * total energy  :    -8.4054150 Eh     change       -0.5624553E-05 Eh
 * total energy  :    -8.4054212 Eh     change       -0.6161743E-05 Eh
 * total energy  :    -8.4054277 Eh     change       -0.6527757E-05 Eh
 * total energy  :    -8.4054357 Eh     change       -0.7980376E-05 Eh
 * total energy  :    -8.4054438 Eh     change       -0.8087634E-05 Eh
 * total energy  :    -8.4054471 Eh     change       -0.3362001E-05 Eh
   *** GEOMETRY OPTIMIZATION CONVERGED AFTER 62 ITERATIONS ***

 final structure:
================
9
 xtb: 6.5.1 (conda-forge)
Be           0.54660917765187        0.27366680117748        0.59665461482605
B            1.97490222273419        0.05474711548529        1.41678405011271
C            3.37642648975177        0.46631021561081        2.03018549360258
C            2.86347220466432       -0.74797659308898        2.31450456325186
H            3.03016509976825       -1.65850769991301        2.85433471656190
H            3.88582366431220        1.73350805155296        3.28807034842330
H            4.01998266365113        2.25655602098180        3.92679192709867
H            1.99847524500126        0.33434577367267        4.92256189199986
H            1.69014323248254        0.08828731448750        5.59461239411394

          :  Hamiltonian                  GFN2-xTB          :
         :: total energy              -8.405447130421 Eh    ::
         :: gradient norm              0.000510921347 Eh/a0 ::
         :: HOMO-LUMO gap              1.074900980328 eV    ::
         :: SCC energy                -8.573990229434 Eh    ::
         :: -> dispersion             -0.003886062426 Eh    ::
         :: repulsion energy           0.168534737624 Eh    ::

    * Orbital Energies and Occupations

         #    Occupation            Energy/Eh            Energy/eV
      -------------------------------------------------------------
         1        2.0000           -0.5448007             -14.8248
         2        2.0000           -0.4711673             -12.8211
         3        2.0000           -0.4469292             -12.1616
         4        2.0000           -0.4233877             -11.5210
         5        2.0000           -0.4060350             -11.0488
         6        2.0000           -0.3631101              -9.8807
         7        2.0000           -0.3552753              -9.6675
         8        2.0000           -0.3269859              -8.8977
         9        2.0000           -0.2724458              -7.4136 (HOMO)
        10                         -0.2329439              -6.3387 (LUMO)
        11                         -0.2304124              -6.2698
        12                         -0.1865063              -5.0751
        13                         -0.1401195              -3.8128
        14                         -0.0640461              -1.7428
        15                          0.1052221               2.8632
        16                          0.1443830               3.9289
        17                          0.1835700               4.9952
        18                          0.2197369               5.9793
        19                          0.4667207              12.7001
        20                          0.7190226              19.5656
        21                          0.7792084              21.2033
      -------------------------------------------------------------
                  HL-Gap            0.0395019 Eh            1.0749 eV

     #   Z          covCN         q      C6AA      α(0)
     1   4 Be       0.912     0.367    67.025    24.555
     2   5 B        2.715     0.025    21.176     7.714
     3   6 C        1.880    -0.246    38.473    10.018
     4   6 C        2.812    -0.078    29.927     8.963
     5   1 H        0.926    -0.019     3.406     2.886
     6   1 H        0.573     0.035     3.209     2.959
     7   1 H        0.572    -0.082     6.347     4.163
     8   1 H        0.806     0.014     2.882     2.666
     9   1 H        0.806    -0.016     3.412     2.901

Wiberg/Mayer (AO) data.
largest (>0.10) Wiberg bond orders for each atom

     #   Z sym  total        # sym  WBO       # sym  WBO       # sym  WBO
 ---------------------------------------------------------------------------
     1   4 Be   1.905 --     2 B    1.398     3 C    0.322     4 C    0.155
     2   5 B    3.511 --     1 Be   1.398     4 C    1.168     3 C    0.926
     3   6 C    3.071 --     4 C    1.652     2 B    0.926     1 Be   0.322
     4   6 C    3.957 --     3 C    1.652     2 B    1.168     5 H    0.963
                             1 Be   0.155
     5   1 H    1.000 --     4 C    0.963
     6   1 H    0.999 --     7 H    0.897
     7   1 H    0.993 --     6 H    0.897
     8   1 H    1.000 --     9 H    0.997
     9   1 H    1.000 --     8 H    0.997
 ---------------------------------------------------------------------------

molecular dipole:
                 x           y           z       tot (Debye)
 q only:       -1.991      -0.086      -1.340
   full:       -3.171      -0.366      -1.730       9.229

           -------------------------------------------------
          | TOTAL ENERGY               -8.405447130421 Eh   |
          | GRADIENT NORM               0.000510921347 Eh/α |
          | HOMO-LUMO GAP               1.074900980328 eV   |
           -------------------------------------------------

normal termination of xtb
 * finished run on 2025/06/07 at 03:27:48.148
