   * xtb version 6.5.1 (conda-forge) compiled by 'runner@Mac-1657629245115.local' on 2022-07-12
          program call               : xtb BBeC4H4.xyz --gfn 2 --opt

   ID    Z sym.   atoms
    1    4 Be     1
    2    5 B      2
    3    6 C      3-6
    4    1 H      7-10

          :  Hamiltonian                  GFN2-xTB          :
 * total energy  :   -11.3143169 Eh     change       -0.5758238E-10 Eh
 * total energy  :   -11.5258193 Eh     change       -0.2115024E+00 Eh
 * total energy  :   -11.7617183 Eh     change       -0.2358989E+00 Eh
 * total energy  :   -11.8282810 Eh     change       -0.6656276E-01 Eh
 * total energy  :   -11.8875549 Eh     change       -0.5927390E-01 Eh
 * total energy  :   -11.9202685 Eh     change       -0.3271359E-01 Eh
 * total energy  :   -11.9707125 Eh     change       -0.5044399E-01 Eh
 * total energy  :   -11.9875649 Eh     change       -0.1685238E-01 Eh
 * total energy  :   -12.0129617 Eh     change       -0.2539685E-01 Eh
 * total energy  :   -11.9296019 Eh     change        0.8335978E-01 Eh
 * total energy  :   -12.2217770 Eh     change       -0.1426582E-04 Eh
 * total energy  :   -12.2217851 Eh     change       -0.8133136E-05 Eh
 * total energy  :   -12.2217913 Eh     change       -0.6240407E-05 Eh
 * total energy  :   -12.2218006 Eh     change       -0.9225365E-05 Eh
 * total energy  :   -12.2218160 Eh     change       -0.1545274E-04 Eh
 * total energy  :   -12.2218227 Eh     change       -0.6657723E-05 Eh
 * total energy  :   -12.2218303 Eh     change       -0.7589649E-05 Eh
 * total energy  :   -12.2218360 Eh     change       -0.5745091E-05 Eh
 * total energy  :   -12.2218391 Eh     change       -0.3069422E-05 Eh
   *** GEOMETRY OPTIMIZATION CONVERGED AFTER 110 ITERATIONS ***

 final structure:
================
10
 xtb: 6.5.1 (conda-forge)
Be           0.48922947691522        0.58105657618529       -0.50337362104503
B            1.42959715774543        0.49338531896645        0.84776819205804
C            2.21195471076327        0.43058114556534        1.97731737663332
C            2.94619345733083        0.37584636062669        3.04769597690829
C            3.64845238255481        0.32841031180680        4.09323237052479
C            4.39002164465868        0.28093024090748        5.18562801161224
H            3.94933744255574        0.19240359224090        6.16790848760979
H            5.46824529209439        0.33191095864875        5.13935677736922
H            1.20970875609565        0.92289761294654        5.14398451465821
H            0.67925967928703        1.07857788211124        5.69548191367925

          :  Hamiltonian                  GFN2-xTB          :
         :: total energy             -12.221839083969 Eh    ::
         :: gradient norm              0.000295517088 Eh/a0 ::
         :: HOMO-LUMO gap              1.028937541821 eV    ::
         :: SCC energy               -12.545787182476 Eh    ::
         :: -> dispersion             -0.005531960469 Eh    ::
         :: repulsion energy           0.323961787730 Eh    ::

    * Orbital Energies and Occupations

         #    Occupation            Energy/Eh            Energy/eV
      -------------------------------------------------------------
         1        2.0000           -0.5567655             -15.1504
         2        2.0000           -0.5383829             -14.6501
         3        2.0000           -0.5038222             -13.7097
         4        2.0000           -0.4474302             -12.1752
         5        2.0000           -0.4423382             -12.0366
         6        2.0000           -0.4306946             -11.7198
         7        2.0000           -0.4150849             -11.2950
         8        2.0000           -0.3935636             -10.7094
         9        2.0000           -0.3702372             -10.0747
        10        2.0000           -0.3565451              -9.7021
        11        2.0000           -0.3272754              -8.9056
        12        2.0000           -0.2860646              -7.7842
        13        1.0000           -0.2528418              -6.8802 (HOMO)
        14                         -0.2150290              -5.8512 (LUMO)
        15                         -0.2078193              -5.6550
        16                         -0.1840595              -5.0085
        17                         -0.0952376              -2.5915
        18                         -0.0667356              -1.8160
        19                          0.0291475               0.7931
        20                          0.0420439               1.1441
        21                          0.1547251               4.2103
        22                          0.1666529               4.5349
        23                          0.2821448               7.6776
        24                          0.3662753               9.9669
       ...                                ...                  ...
        28                          1.5134231              41.1823
      -------------------------------------------------------------
                  HL-Gap            0.0378128 Eh            1.0289 eV

     #   Z          covCN         q      C6AA      α(0)
     1   4 Be       0.912     0.370    66.868    24.526
     2   5 B        1.820    -0.062    46.962    14.436
     3   6 C        1.890    -0.127    34.671     9.510
     4   6 C        1.963    -0.050    32.422     9.195
     5   6 C        1.963    -0.045    32.285     9.176
     6   6 C        2.833    -0.107    30.680     9.077
     7   1 H        0.926     0.014     2.833     2.632
     8   1 H        0.926     0.013     2.844     2.637
     9   1 H        0.800     0.019     2.801     2.630
    10   1 H        0.800    -0.025     3.592     2.978

Wiberg/Mayer (AO) data.
largest (>0.10) Wiberg bond orders for each atom

     #   Z sym  total        # sym  WBO       # sym  WBO       # sym  WBO
 ---------------------------------------------------------------------------
     1   4 Be   1.585 --     2 B    1.325     3 C    0.240
     2   5 B    3.401 --     3 C    1.874     1 Be   1.325     5 C    0.180
     3   6 C    3.941 --     2 B    1.874     4 C    1.703     1 Be   0.240
                             6 C    0.115
     4   6 C    3.795 --     5 C    1.984     3 C    1.703
     5   6 C    3.878 --     4 C    1.984     6 C    1.694     2 B    0.180
     6   6 C    3.734 --     5 C    1.694     7 H    0.955     8 H    0.954
                             3 C    0.115
     7   1 H    0.984 --     6 C    0.955
     8   1 H    0.984 --     6 C    0.954
     9   1 H    1.000 --    10 H    0.993
    10   1 H    0.999 --     9 H    0.993
 ---------------------------------------------------------------------------

molecular dipole:
                 x           y           z       tot (Debye)
 q only:       -1.585       0.121      -2.407
   full:       -2.247       0.187      -3.351      10.265

normal termination of xtb

           -------------------------------------------------
          | TOTAL ENERGY              -12.221839083969 Eh   |
          | GRADIENT NORM               0.000295517088 Eh/α |
          | HOMO-LUMO GAP               1.028937541821 eV   |
           -------------------------------------------------

 * finished run on 2025/06/07 at 03:27:50.177
