   * xtb version 6.5.1 (conda-forge) compiled by 'runner@Mac-1657629245115.local' on 2022-07-12
          program call               : xtb BBeCH6.xyz --gfn 2 --opt

   ID    Z sym.   atoms
    1    4 Be     1
    2    5 B      2
    3    6 C      3
    4    1 H      4-9

          :  Hamiltonian                  GFN2-xTB          :
 * total energy  :    -6.3822947 Eh     change        0.1350214E-07 Eh
 * total energy  :    -6.5191616 Eh     change       -0.1368669E+00 Eh
 * total energy  :    -6.5356740 Eh     change       -0.1651245E-01 Eh
 * total energy  :    -6.6096511 Eh     change       -0.7397706E-01 Eh
 * total energy  :    -6.6615270 Eh     change       -0.5187590E-01 Eh
 * total energy  :    -6.6967857 Eh     change       -0.3525869E-01 Eh
 * total energy  :    -6.6908851 Eh     change        0.5900622E-02 Eh
 * total energy  :    -6.7254242 Eh     change       -0.3453908E-01 Eh
 * total energy  :    -6.7329620 Eh     change       -0.7537847E-02 Eh
 * total energy  :    -6.7363558 Eh     change       -0.3393794E-02 Eh
 * total energy  :    -6.8500335 Eh     change       -0.1982159E-04 Eh
 * total energy  :    -6.8500604 Eh     change       -0.2695955E-04 Eh
 * total energy  :    -6.8500403 Eh     change        0.2016831E-04 Eh
 * total energy  :    -6.8500839 Eh     change       -0.4360464E-04 Eh
 * total energy  :    -6.8500917 Eh     change       -0.7799803E-05 Eh
 * total energy  :    -6.8501012 Eh     change       -0.9566494E-05 Eh
 * total energy  :    -6.8501112 Eh     change       -0.9989758E-05 Eh
 * total energy  :    -6.8501153 Eh     change       -0.4043574E-05 Eh
 * total energy  :    -6.8501193 Eh     change       -0.4008523E-05 Eh
   *** GEOMETRY OPTIMIZATION CONVERGED AFTER 117 ITERATIONS ***

 final structure:
================
9
 xtb: 6.5.1 (conda-forge)
Be           1.43026264799280        0.85495784096832        2.02523449715601
B            2.99516907767381        0.28816273629118        2.18808762804487
C            4.32799991944860        0.06133169280311        1.77159633922561
H            5.09934880484672       -0.41093559440072        2.37350839323129
H            4.72516934504439        0.32794677523968        0.79452339389305
H            4.80830094398267        2.30246642878328        2.82031122499685
H            5.22172406832256        2.91983337343866        3.08902391938321
H            2.85745161546974       -0.85897066090413        4.38641048457248
H            2.93157357721422       -1.25512459221139        5.07580411950025

          :  Hamiltonian                  GFN2-xTB          :
         :: total energy              -6.850119291087 Eh    ::
         :: gradient norm              0.000701304722 Eh/a0 ::
         :: HOMO-LUMO gap              1.002188409200 eV    ::
         :: SCC energy                -6.996620981049 Eh    ::
         :: -> dispersion             -0.003507071432 Eh    ::
         :: repulsion energy           0.146493898099 Eh    ::

    * Orbital Energies and Occupations

         #    Occupation            Energy/Eh            Energy/eV
      -------------------------------------------------------------
         1        2.0000           -0.4911264             -13.3642
         2        2.0000           -0.4458417             -12.1320
         3        2.0000           -0.4368397             -11.8870
         4        2.0000           -0.3965427             -10.7905
         5        2.0000           -0.3917071             -10.6589
         6        2.0000           -0.3306494              -8.9974
         7        2.0000           -0.2911932              -7.9238
         8        1.0000           -0.2234100              -6.0793 (HOMO)
         9                         -0.1865803              -5.0771 (LUMO)
        10                         -0.1728420              -4.7033
        11                         -0.0781390              -2.1263
        12                         -0.0201106              -0.5472
        13                          0.1441686               3.9230
        14                          0.1495339               4.0690
        15                          0.2527541               6.8778
        16                          0.3398691               9.2483
        17                          0.6804747              18.5167
        18                          0.8128626              22.1191
      -------------------------------------------------------------
                  HL-Gap            0.0368297 Eh            1.0022 eV

     #   Z          covCN         q      C6AA      α(0)
     1   4 Be       0.911     0.322    69.190    24.948
     2   5 B        1.818    -0.030    45.712    14.243
     3   6 C        2.757    -0.213    33.630     9.496
     4   1 H        0.925    -0.012     3.281     2.833
     5   1 H        0.925    -0.026     3.545     2.945
     6   1 H        0.769     0.015     2.899     2.682
     7   1 H        0.769    -0.035     3.849     3.090
     8   1 H        0.738     0.008     3.054     2.762
     9   1 H        0.738    -0.030     3.783     3.074

Wiberg/Mayer (AO) data.
largest (>0.10) Wiberg bond orders for each atom

normal termination of xtb
     #   Z sym  total        # sym  WBO       # sym  WBO       # sym  WBO
 ---------------------------------------------------------------------------
     1   4 Be   1.434 --     2 B    1.253     3 C    0.146
     2   5 B    3.196 --     3 C    1.860     1 Be   1.253
     3   6 C    3.937 --     2 B    1.860     4 H    0.955     5 H    0.951
                             1 Be   0.146
     4   1 H    0.987 --     3 C    0.955
     5   1 H    0.977 --     3 C    0.951
     6   1 H    1.000 --     7 H    0.979
     7   1 H    0.999 --     6 H    0.979
     8   1 H    0.998 --     9 H    0.963
     9   1 H    0.977 --     8 H    0.963
 ---------------------------------------------------------------------------

molecular dipole:
                 x           y           z       tot (Debye)
 q only:       -1.717       0.402      -0.039
   full:       -2.284       0.545       0.136       5.979

           -------------------------------------------------
          | TOTAL ENERGY               -6.850119291087 Eh   |
          | GRADIENT NORM               0.000701304722 Eh/α |
          | HOMO-LUMO GAP               1.002188409200 eV   |
           -------------------------------------------------

 * finished run on 2025/06/07 at 03:27:51.249
