   * xtb version 6.5.1 (conda-forge) compiled by 'runner@Mac-1657629245115.local' on 2022-07-12
          program call               : xtb BBeC3H5.xyz --gfn 2 --opt

   ID    Z sym.   atoms
    1    4 Be     1
    2    5 B      2
    3    6 C      3-5
    4    1 H      6-10

          :  Hamiltonian                  GFN2-xTB          :
 * total energy  :    -9.8782102 Eh     change       -0.4284576E-08 Eh
 * total energy  :   -10.0647167 Eh     change       -0.1865065E+00 Eh
 * total energy  :   -10.2408977 Eh     change       -0.1761810E+00 Eh
 * total energy  :   -10.3076151 Eh     change       -0.6671739E-01 Eh
 * total energy  :   -10.3667529 Eh     change       -0.5913779E-01 Eh
 * total energy  :   -10.3920228 Eh     change       -0.2526988E-01 Eh
 * total energy  :   -10.4239077 Eh     change       -0.3188489E-01 Eh
 * total energy  :   -10.4451854 Eh     change       -0.2127770E-01 Eh
 * total energy  :   -10.4460012 Eh     change       -0.8157969E-03 Eh
 * total energy  :   -10.4375336 Eh     change        0.8467588E-02 Eh
 * total energy  :   -10.5230957 Eh     change        0.1302384E-05 Eh
 * total energy  :   -10.5231160 Eh     change       -0.2033561E-04 Eh
 * total energy  :   -10.5231253 Eh     change       -0.9254264E-05 Eh
 * total energy  :   -10.5231336 Eh     change       -0.8311311E-05 Eh
 * total energy  :   -10.5231455 Eh     change       -0.1189713E-04 Eh
 * total energy  :   -10.5231515 Eh     change       -0.6032280E-05 Eh
 * total energy  :   -10.5231616 Eh     change       -0.1010075E-04 Eh
 * total energy  :   -10.5231714 Eh     change       -0.9793763E-05 Eh
 * total energy  :   -10.5231748 Eh     change       -0.3413258E-05 Eh
   *** GEOMETRY OPTIMIZATION CONVERGED AFTER 66 ITERATIONS ***

 final structure:
================
10
 xtb: 6.5.1 (conda-forge)
Be           2.06416961794546        0.50147672524491        0.41049406337337
B            1.43881923686244       -0.29180680690877        1.76330617983394
C            2.90542145988035        0.72260208153455        1.81866166169318
C            2.58631067343400        1.00906544028679        3.10102355600376
C            2.32641216318287       -0.45108891077020        2.89764516008495
H            2.91161101307816       -1.20949306189768        3.39094313541402
H            3.93823461835296        1.62649690645427        4.29043127006237
H            4.58627025432898        1.78991985345649        4.76444037023003
H            1.95454904326031        0.49634924734161        5.88551614494693
H            1.71020191967316        0.07446252525931        6.49253845835746

          :  Hamiltonian                  GFN2-xTB          :
         :: total energy             -10.523174821143 Eh    ::
         :: gradient norm              0.000802691596 Eh/a0 ::
         :: HOMO-LUMO gap              2.149613892411 eV    ::
         :: SCC energy               -10.724399687270 Eh    ::
         :: -> dispersion             -0.004164915720 Eh    ::
         :: repulsion energy           0.201221051335 Eh    ::

    * Orbital Energies and Occupations

         #    Occupation            Energy/Eh            Energy/eV
      -------------------------------------------------------------
         1        2.0000           -0.5920220             -16.1097
         2        2.0000           -0.5140911             -13.9891
         3        2.0000           -0.4785351             -13.0216
         4        2.0000           -0.4502631             -12.2523
         5        2.0000           -0.4351410             -11.8408
         6        2.0000           -0.4249048             -11.5622
         7        2.0000           -0.4012200             -10.9178
         8        2.0000           -0.3817308             -10.3874
         9        2.0000           -0.3581650              -9.7462
        10        2.0000           -0.3301295              -8.9833
        11        2.0000           -0.3094597              -8.4208 (HOMO)
        12                         -0.2304629              -6.2712 (LUMO)
        13                         -0.2122630              -5.7760
        14                         -0.1751215              -4.7653
        15                         -0.1427294              -3.8839
        16                         -0.1004965              -2.7346
        17                         -0.0204540              -0.5566
        18                          0.1297970               3.5320
        19                          0.1535393               4.1780
        20                          0.1562344               4.2514
        21                          0.1909826               5.1969
        22                          0.2582247               7.0267
       ...                                ...                  ...
        25                          0.9848697              26.7997
      -------------------------------------------------------------
                  HL-Gap            0.0789969 Eh            2.1496 eV

     #   Z          covCN         q      C6AA      α(0)
     1   4 Be       1.777     0.450    14.394     8.804
     2   5 B        2.810     0.058    20.460     7.558
     3   6 C        3.565    -0.222    25.952     7.420
     4   6 C        2.140    -0.191    36.241     9.731
     5   6 C        3.758    -0.066    21.826     6.661
     6   1 H        0.926    -0.002     3.084     2.746
     7   1 H        0.651     0.027     2.942     2.756
     8   1 H        0.651    -0.052     4.632     3.459
     9   1 H        0.808     0.020     2.778     2.617
    10   1 H        0.808    -0.022     3.533     2.952

Wiberg/Mayer (AO) data.
largest (>0.10) Wiberg bond orders for each atom

     #   Z sym  total        # sym  WBO       # sym  WBO       # sym  WBO
 ---------------------------------------------------------------------------
     1   4 Be   2.095 --     2 B    1.022     3 C    0.864     4 C    0.131
     2   5 B    3.302 --     5 C    1.357     1 Be   1.022     3 C    0.590
                             4 C    0.304
     3   6 C    3.665 --     4 C    1.588     1 Be   0.864     5 C    0.593
                             2 B    0.590
     4   6 C    3.076 --     3 C    1.588     5 C    0.921     2 B    0.304
                             1 Be   0.131
     5   6 C    3.896 --     2 B    1.357     6 H    0.964     4 C    0.921
                             3 C    0.593
     6   1 H    1.000 --     5 C    0.964
     7   1 H    0.999 --     8 H    0.912
     8   1 H    0.997 --     7 H    0.912
     9   1 H    1.000 --    10 H    0.997
    10   1 H    0.999 --     9 H    0.997
 ---------------------------------------------------------------------------

molecular dipole:
                 x           y           z       tot (Debye)
 q only:       -0.787      -0.290      -2.011
   full:       -0.143      -0.097      -2.742       6.984

normal termination of xtb

           -------------------------------------------------
          | TOTAL ENERGY              -10.523174821143 Eh   |
          | GRADIENT NORM               0.000802691596 Eh/α |
          | HOMO-LUMO GAP               2.149613892411 eV   |
           -------------------------------------------------

 * finished run on 2025/06/07 at 03:27:49.038
