   * xtb version 6.5.1 (conda-forge) compiled by 'runner@Mac-1657629245115.local' on 2022-07-12
          program call               : xtb BBeC3H6.xyz --gfn 2 --opt

   ID    Z sym.   atoms
    1    4 Be     1
    2    5 B      2
    3    6 C      3-5
    4    1 H      6-11

          :  Hamiltonian                  GFN2-xTB          :
 * total energy  :   -10.3922058 Eh     change        0.4858938E-08 Eh
 * total energy  :   -10.5667518 Eh     change       -0.1745460E+00 Eh
 * total energy  :   -10.6970055 Eh     change       -0.1302538E+00 Eh
 * total energy  :   -10.7439556 Eh     change       -0.4695006E-01 Eh
 * total energy  :   -10.7769488 Eh     change       -0.3299325E-01 Eh
 * total energy  :   -10.8131829 Eh     change       -0.3623410E-01 Eh
 * total energy  :   -10.8218256 Eh     change       -0.8642678E-02 Eh
 * total energy  :   -10.8393543 Eh     change       -0.1752866E-01 Eh
 * total energy  :   -10.8525135 Eh     change       -0.1315918E-01 Eh
 * total energy  :   -10.8671931 Eh     change       -0.1467966E-01 Eh
 * total energy  :   -10.9238653 Eh     change       -0.4511733E-04 Eh
 * total energy  :   -10.9239012 Eh     change       -0.3591720E-04 Eh
 * total energy  :   -10.9239216 Eh     change       -0.2037081E-04 Eh
 * total energy  :   -10.9239326 Eh     change       -0.1100600E-04 Eh
 * total energy  :   -10.9239431 Eh     change       -0.1054507E-04 Eh
 * total energy  :   -10.9239519 Eh     change       -0.8746196E-05 Eh
 * total energy  :   -10.9239596 Eh     change       -0.7775084E-05 Eh
 * total energy  :   -10.9239651 Eh     change       -0.5518422E-05 Eh
 * total energy  :   -10.9239685 Eh     change       -0.3371449E-05 Eh
   *** GEOMETRY OPTIMIZATION CONVERGED AFTER 88 ITERATIONS ***

 final structure:
================
11
 xtb: 6.5.1 (conda-forge)
Be           0.52478321411228       -0.28162889672068        0.36165449743766
B            1.65274636547596        0.23524183281402        1.45435150838941
C            2.60168993525577        0.61401656470096        2.39507706101759
C            3.33492660847755        1.62409249424811        3.24653789750806
C            3.65161205206834        0.34020639834224        3.35157212147390
H            4.14444780817710       -0.56077743369600        3.70503223204749
H            4.57469396688106       -2.08579982701017        4.13233730194792
H            2.54244829168602        2.70625021140680        4.64552330795149
H            2.16654604876079        3.06779331767352        5.26715574963618
H            2.16303095225409        0.33594456466348        6.05346697792572
H            2.10107475689858       -0.29862422650521        6.49979134474404

          :  Hamiltonian                  GFN2-xTB          :
         :: total energy             -10.923968522234 Eh    ::
         :: gradient norm              0.000772844984 Eh/a0 ::
         :: HOMO-LUMO gap              1.184792925281 eV    ::
         :: SCC energy               -11.152051782002 Eh    ::
         :: -> dispersion             -0.006199729151 Eh    ::
         :: repulsion energy           0.228064268096 Eh    ::

    * Orbital Energies and Occupations

         #    Occupation            Energy/Eh            Energy/eV
      -------------------------------------------------------------
         1        2.0000           -0.6171358             -16.7931
         2        2.0000           -0.5202203             -14.1559
         3        2.0000           -0.5081603             -13.8277
         4        2.0000           -0.4545050             -12.3677
         5        2.0000           -0.4431600             -12.0590
         6        2.0000           -0.4355533             -11.8520
         7        2.0000           -0.4202758             -11.4363
         8        2.0000           -0.4071180             -11.0782
         9        2.0000           -0.3908546             -10.6357
        10        2.0000           -0.3391246              -9.2280
        11        1.8528           -0.3182366              -8.6597
        12        1.1472           -0.3148983              -8.5688 (HOMO)
        13                         -0.2713580              -7.3840 (LUMO)
        14                         -0.2598594              -7.0711
        15                         -0.2280255              -6.2049
        16                         -0.1789888              -4.8705
        17                         -0.1284972              -3.4966
        18                         -0.0607549              -1.6532
        19                          0.0720167               1.9597
        20                          0.1490815               4.0567
        21                          0.1684909               4.5849
        22                          0.1843357               5.0160
        23                          0.2396700               6.5218
       ...                                ...                  ...
        26                          0.8596165              23.3914
      -------------------------------------------------------------
                  HL-Gap            0.0435403 Eh            1.1848 eV

     #   Z          covCN         q      C6AA      α(0)
     1   4 Be       0.912     0.403    65.325    24.241
     2   5 B        1.819    -0.024    45.494    14.209
     3   6 C        2.863    -0.033    28.827     8.801
     4   6 C        1.957    -0.158    35.562     9.630
     5   6 C        2.885     0.005    27.898     8.659
     6   1 H        0.925     0.070     2.091     2.261
     7   1 H        0.000    -0.251    38.858    11.398
     8   1 H        0.685     0.028     2.822     2.678
     9   1 H        0.685    -0.039     4.152     3.248
    10   1 H        0.809     0.005     3.017     2.728
    11   1 H        0.809    -0.007     3.234     2.824

Wiberg/Mayer (AO) data.
largest (>0.10) Wiberg bond orders for each atom

     #   Z sym  total        # sym  WBO       # sym  WBO       # sym  WBO
 ---------------------------------------------------------------------------
     1   4 Be   1.808 --     2 B    1.406     3 C    0.219     4 C    0.108
     2   5 B    3.457 --     3 C    1.731     1 Be   1.406     4 C    0.196
     3   6 C    3.862 --     2 B    1.731     5 C    1.040     4 C    0.862
                             1 Be   0.219
     4   6 C    3.018 --     5 C    1.700     3 C    0.862     2 B    0.196
                             1 Be   0.108
     5   6 C    3.813 --     4 C    1.700     3 C    1.040     6 H    0.869
     6   1 H    0.993 --     5 C    0.869
     7   1 H    0.150
     8   1 H    0.999 --     9 H    0.918
     9   1 H    0.976 --     8 H    0.918
    10   1 H    1.000 --    11 H    0.998
    11   1 H    1.000 --    10 H    0.998
 ---------------------------------------------------------------------------

molecular dipole:
                 x           y           z       tot (Debye)
 q only:       -2.450       0.096      -2.514
   full:       -3.323      -0.883      -3.382      12.258

normal termination of xtb

           -------------------------------------------------
          | TOTAL ENERGY              -10.923968522234 Eh   |
          | GRADIENT NORM               0.000772844984 Eh/α |
          | HOMO-LUMO GAP               1.184792925281 eV   |
           -------------------------------------------------

 * finished run on 2025/06/07 at 03:27:49.622
