   * xtb version 6.5.1 (conda-forge) compiled by 'runner@Mac-1657629245115.local' on 2022-07-12
          program call               : xtb BBeC4H6.xyz --gfn 2 --opt

   ID    Z sym.   atoms
    1    4 Be     1
    2    5 B      2
    3    6 C      3-6
    4    1 H      7-12

          :  Hamiltonian                  GFN2-xTB          :
 * total energy  :   -12.3409470 Eh     change       -0.5723354E-08 Eh
 * total energy  :   -12.5494101 Eh     change       -0.2084631E+00 Eh
 * total energy  :   -12.7964056 Eh     change       -0.2469955E+00 Eh
 * total energy  :   -12.7407288 Eh     change        0.5567685E-01 Eh
 * total energy  :   -12.8624494 Eh     change       -0.1217206E+00 Eh
 * total energy  :   -12.8560944 Eh     change        0.6354978E-02 Eh
 * total energy  :   -12.9266415 Eh     change       -0.7054713E-01 Eh
 * total energy  :   -12.9185195 Eh     change        0.8122027E-02 Eh
 * total energy  :   -12.9641527 Eh     change       -0.4563322E-01 Eh
 * total energy  :   -12.9636973 Eh     change        0.4554283E-03 Eh
 * total energy  :   -13.0842276 Eh     change       -0.1647696E-04 Eh
 * total energy  :   -13.0842394 Eh     change       -0.1173879E-04 Eh
 * total energy  :   -13.0841727 Eh     change        0.6664600E-04 Eh
 * total energy  :   -13.0842374 Eh     change       -0.6467459E-04 Eh
 * total energy  :   -13.0841769 Eh     change        0.6054879E-04 Eh
 * total energy  :   -13.0842430 Eh     change       -0.6616543E-04 Eh
 * total energy  :   -13.0842449 Eh     change       -0.1907123E-05 Eh
 * total energy  :   -13.0842526 Eh     change       -0.7706333E-05 Eh
 * total energy  :   -13.0842575 Eh     change       -0.4814352E-05 Eh
   *** GEOMETRY OPTIMIZATION CONVERGED AFTER 74 ITERATIONS ***

 final structure:
================
12
 xtb: 6.5.1 (conda-forge)
Be           0.96879282790902        0.38852491674177       -1.17515518581536
B            1.58005712827668        0.39824867664547        0.36515836185985
C            2.07986716446804        0.40854093754788        1.66524114118859
C            2.55589552053852        0.40570466748698        2.84240368531111
C            3.00388386482270        0.42833088372383        4.06477203766382
C            3.26315300353221        0.58735521897121        5.29759362380383
H            4.46775903713373       -0.07080401454435        5.87082814236583
H            5.23043565884946       -0.53197925653684        6.05408892409131
H            3.22255393862728        2.54089051231834        5.93292731040642
H            3.20775908505682        3.31461625442370        6.13981257639099
H            1.75608228156455        0.00111693540736        6.57599682755374
H            1.15776048922644       -0.25287773220782        7.04333255519663

          :  Hamiltonian                  GFN2-xTB          :
         :: total energy             -13.084257462385 Eh    ::
         :: gradient norm              0.000768917016 Eh/a0 ::
         :: HOMO-LUMO gap              0.170967130363 eV    ::
         :: SCC energy               -13.421777054060 Eh    ::
         :: -> dispersion             -0.006769153815 Eh    ::
         :: repulsion energy           0.337550040336 Eh    ::

    * Orbital Energies and Occupations

         #    Occupation            Energy/Eh            Energy/eV
      -------------------------------------------------------------
         1        2.0000           -0.5721359             -15.5686
         2        2.0000           -0.5560281             -15.1303
         3        2.0000           -0.5161878             -14.0462
         4        2.0000           -0.4607836             -12.5386
         5        2.0000           -0.4376596             -11.9093
         6        2.0000           -0.4265963             -11.6083
         7        2.0000           -0.4241244             -11.5410
         8        2.0000           -0.4080152             -11.1027
         9        2.0000           -0.4058360             -11.0434
        10        2.0000           -0.3927387             -10.6870
        11        2.0000           -0.3434452              -9.3456
        12        2.0000           -0.3418811              -9.3031
        13        2.0000           -0.3135407              -8.5319
        14        0.9647           -0.2785683              -7.5802 (HOMO)
        15        0.0353           -0.2722854              -7.4093 (LUMO)
        16                         -0.2467281              -6.7138
        17                         -0.1981955              -5.3932
        18                         -0.1962964              -5.3415
        19                         -0.0964424              -2.6243
        20                         -0.0908366              -2.4718
        21                          0.0038825               0.1056
        22                          0.0101597               0.2765
        23                          0.1607219               4.3735
        24                          0.1933578               5.2615
        25                          0.2062624               5.6127
       ...                                ...                  ...
        30                          1.4708333              40.0234
      -------------------------------------------------------------
                  HL-Gap            0.0062829 Eh            0.1710 eV

     #   Z          covCN         q      C6AA      α(0)
     1   4 Be       0.912     0.391    65.887    24.345
     2   5 B        1.819    -0.006    44.845    14.107
     3   6 C        1.889    -0.124    34.591     9.499
     4   6 C        1.963    -0.004    31.166     9.015
     5   6 C        1.963    -0.036    32.044     9.142
     6   6 C        1.285    -0.185    43.125    11.104
     7   1 H        0.539     0.080     2.733     2.773
     8   1 H        0.236    -0.081    11.940     6.295
     9   1 H        0.728     0.025     2.794     2.645
    10   1 H        0.728    -0.042     4.087     3.199
    11   1 H        0.730     0.024     2.795     2.645
    12   1 H        0.730    -0.042     4.077     3.194

Wiberg/Mayer (AO) data.
largest (>0.10) Wiberg bond orders for each atom

     #   Z sym  total        # sym  WBO       # sym  WBO       # sym  WBO
 ---------------------------------------------------------------------------
     1   4 Be   1.480 --     2 B    1.313     3 C    0.142
     2   5 B    3.285 --     3 C    1.692     1 Be   1.313     5 C    0.122
     3   6 C    3.940 --     4 C    1.944     2 B    1.692     6 C    0.151
                             1 Be   0.142
     4   6 C    3.791 --     3 C    1.944     5 C    1.621
     5   6 C    3.910 --     6 C    2.090     4 C    1.621     2 B    0.122
     6   6 C    2.965 --     5 C    2.090     7 H    0.281     3 C    0.151
                             8 H    0.118
     7   1 H    0.991 --     8 H    0.702     6 C    0.281
     8   1 H    0.899 --     7 H    0.702     6 C    0.118
     9   1 H    0.999 --    10 H    0.945
    10   1 H    0.986 --     9 H    0.945
    11   1 H    0.999 --    12 H    0.946
    12   1 H    0.985 --    11 H    0.946
 ---------------------------------------------------------------------------

molecular dipole:
                 x           y           z       tot (Debye)
 q only:       -1.398      -0.103      -3.917
   full:       -1.918      -0.196      -5.550      14.934

           -------------------------------------------------
          | TOTAL ENERGY              -13.084257462385 Eh   |
          | GRADIENT NORM               0.000768917016 Eh/α |
          | HOMO-LUMO GAP               0.170967130363 eV   |
Note: The following floating-point exceptions are signalling: IEEE_UNDERFLOW_FLAG
normal termination of xtb
           -------------------------------------------------

 * finished run on 2025/06/07 at 03:27:50.928
