   * xtb version 6.5.1 (conda-forge) compiled by 'runner@Mac-1657629245115.local' on 2022-07-12
          program call               : xtb BBeC3H3.xyz --gfn 2 --opt

   ID    Z sym.   atoms
    1    4 Be     1
    2    5 B      2
    3    6 C      3-5
    4    1 H      6-8

          :  Hamiltonian                  GFN2-xTB          :
 * total energy  :    -8.9117029 Eh     change        0.7679954E-09 Eh
 * total energy  :    -9.0639955 Eh     change       -0.1522926E+00 Eh
 * total energy  :    -9.2304593 Eh     change       -0.1664638E+00 Eh
 * total energy  :    -9.3198164 Eh     change       -0.8935710E-01 Eh
 * total energy  :    -9.3785034 Eh     change       -0.5868708E-01 Eh
 * total energy  :    -9.3968390 Eh     change       -0.1833558E-01 Eh
 * total energy  :    -9.3990299 Eh     change       -0.2190873E-02 Eh
 * total energy  :    -9.4405925 Eh     change       -0.4156258E-01 Eh
 * total energy  :    -9.4779916 Eh     change       -0.3739913E-01 Eh
 * total energy  :    -9.4875596 Eh     change       -0.9568015E-02 Eh
 * total energy  :    -9.5962180 Eh     change       -0.4716814E-04 Eh
 * total energy  :    -9.5963318 Eh     change       -0.1138882E-03 Eh
 * total energy  :    -9.5963965 Eh     change       -0.6468358E-04 Eh
 * total energy  :    -9.5963962 Eh     change        0.2768616E-06 Eh
 * total energy  :    -9.5964588 Eh     change       -0.6256517E-04 Eh
 * total energy  :    -9.5964924 Eh     change       -0.3354072E-04 Eh
 * total energy  :    -9.5965159 Eh     change       -0.2355002E-04 Eh
 * total energy  :    -9.5965228 Eh     change       -0.6877884E-05 Eh
 * total energy  :    -9.5965260 Eh     change       -0.3217657E-05 Eh
   *** GEOMETRY OPTIMIZATION CONVERGED AFTER 51 ITERATIONS ***

 final structure:
================
8
 xtb: 6.5.1 (conda-forge)
Be           0.47842642124710        0.52146455473738       -0.69553734934599
B            1.50207370968507        0.30305412471347        0.58184082904901
C            2.33545382570917        0.12434461626816        1.63129095848401
C            3.16969926231714       -0.05390068819716        2.66791802532574
C            3.92125217507884       -0.20229762904363        3.61329569240399
H            4.58378130848954       -0.35149639159740        4.41317563056484
H            2.32360699080300        0.78524844553932        5.27445988194883
H            2.03570630667117        1.04557496757917        5.95455633156733

          :  Hamiltonian                  GFN2-xTB          :
         :: total energy              -9.596525998810 Eh    ::
         :: gradient norm              0.000515187882 Eh/a0 ::
         :: HOMO-LUMO gap              1.888028359017 eV    ::
         :: SCC energy                -9.871848875461 Eh    ::
         :: -> dispersion             -0.003957062258 Eh    ::
         :: repulsion energy           0.275327786481 Eh    ::

    * Orbital Energies and Occupations

         #    Occupation            Energy/Eh            Energy/eV
      -------------------------------------------------------------
         1        2.0000           -0.5417647             -14.7422
         2        2.0000           -0.5026113             -13.6768
         3        2.0000           -0.4493912             -12.2286
         4        2.0000           -0.4330114             -11.7828
         5        2.0000           -0.4094729             -11.1423
         6        2.0000           -0.3724697             -10.1354
         7        2.0000           -0.3713563             -10.1051
         8        2.0000           -0.3500255              -9.5247
         9        2.0000           -0.2862895              -7.7903
        10        2.0000           -0.2862186              -7.7884 (HOMO)
        11                         -0.2168349              -5.9004 (LUMO)
        12                         -0.2047091              -5.5704
        13                         -0.2046210              -5.5680
        14                         -0.0845248              -2.3000
        15                         -0.0840841              -2.2880
        16                          0.0418112               1.1377
        17                          0.0420931               1.1454
        18                          0.1552495               4.2246
        19                          0.1635205               4.4496
        20                          0.4292478              11.6804
        21                          0.8079178              21.9846
       ...                                ...                  ...
        23                          1.5449832              42.0411
      -------------------------------------------------------------
                  HL-Gap            0.0693838 Eh            1.8880 eV

     #   Z          covCN         q      C6AA      α(0)
     1   4 Be       0.912     0.368    66.951    24.541
     2   5 B        1.819    -0.080    47.699    14.549
     3   6 C        1.890    -0.137    34.975     9.551
     4   6 C        1.962    -0.028    31.817     9.109
     5   6 C        1.910    -0.140    35.045     9.561
     6   1 H        0.928     0.025     2.657     2.549
     7   1 H        0.793     0.018     2.819     2.640
     8   1 H        0.793    -0.027     3.640     2.999

Wiberg/Mayer (AO) data.
largest (>0.10) Wiberg bond orders for each atom

     #   Z sym  total        # sym  WBO       # sym  WBO       # sym  WBO
 ---------------------------------------------------------------------------
     1   4 Be   1.743 --     2 B    1.332     3 C    0.403
     2   5 B    3.761 --     3 C    2.158     1 Be   1.332     5 C    0.254
     3   6 C    3.953 --     2 B    2.158     4 C    1.368     1 Be   0.403
     4   6 C    3.977 --     5 C    2.570     3 C    1.368
     5   6 C    3.825 --     4 C    2.570     6 H    0.977     2 B    0.254
     6   1 H    0.999 --     5 C    0.977
     7   1 H    1.000 --     8 H    0.988
     8   1 H    0.997 --     7 H    0.988
 ---------------------------------------------------------------------------

molecular dipole:
                 x           y           z       tot (Debye)
 q only:       -1.507       0.298      -1.999
   full:       -2.294       0.466      -2.984       9.640

           -------------------------------------------------
          | TOTAL ENERGY               -9.596525998810 Eh   |
          | GRADIENT NORM               0.000515187882 Eh/α |
          | HOMO-LUMO GAP               1.888028359017 eV   |
           -------------------------------------------------

 * finished run on 2025/06/07 at 03:27:48.461
normal termination of xtb
