   * xtb version 6.5.1 (conda-forge) compiled by 'runner@Mac-1657629245115.local' on 2022-07-12
          program call               : xtb BBeH3.xyz --gfn 2 --opt

   ID    Z sym.   atoms
    1    4 Be     1
    2    5 B      2
    3    1 H      3-5

          :  Hamiltonian                  GFN2-xTB          :
 * total energy  :    -2.9263861 Eh     change        0.1219629E-09 Eh
 * total energy  :    -3.0869245 Eh     change       -0.1605384E+00 Eh
 * total energy  :    -3.1447270 Eh     change       -0.5780249E-01 Eh
 * total energy  :    -3.2286600 Eh     change       -0.8393293E-01 Eh
 * total energy  :    -3.2966508 Eh     change       -0.6799079E-01 Eh
 * total energy  :    -3.3073051 Eh     change       -0.1065433E-01 Eh
 * total energy  :    -3.3254429 Eh     change       -0.1813780E-01 Eh
 * total energy  :    -3.3195679 Eh     change        0.5875023E-02 Eh
 * total energy  :    -3.3329830 Eh     change       -0.1341514E-01 Eh
 * total energy  :    -3.3295332 Eh     change        0.3449771E-02 Eh
 * total energy  :    -3.3408021 Eh     change       -0.2351267E-02 Eh
 * total energy  :    -3.3413899 Eh     change       -0.5877249E-03 Eh
 * total energy  :    -3.3416656 Eh     change       -0.2757828E-03 Eh
 * total energy  :    -3.3417378 Eh     change       -0.7216037E-04 Eh
 * total energy  :    -3.3418359 Eh     change       -0.9812491E-04 Eh
 * total energy  :    -3.3419752 Eh     change       -0.1393206E-03 Eh
 * total energy  :    -3.3420084 Eh     change       -0.3316236E-04 Eh
 * total energy  :    -3.3420275 Eh     change       -0.1906384E-04 Eh
 * total energy  :    -3.3420302 Eh     change       -0.2765220E-05 Eh
   *** GEOMETRY OPTIMIZATION CONVERGED AFTER 21 ITERATIONS ***

 final structure:
================
5
 xtb: 6.5.1 (conda-forge)
Be           0.95104426734139        0.03424586407356        0.61503772535067
B            2.43255553636069        0.17752758714730        1.56317231672225
H            3.29808989378705       -0.42583392950483        1.02623771001476
H            2.64880928147434        1.32310025757533        1.77033018348873
H            1.91150102103653       -0.40409477929135        2.47772206442359

          :  Hamiltonian                  GFN2-xTB          :
         :: total energy              -3.342030230739 Eh    ::
         :: gradient norm              0.000280418467 Eh/a0 ::
         :: HOMO-LUMO gap              2.237383349928 eV    ::
         :: SCC energy                -3.380901127706 Eh    ::
         :: -> dispersion             -0.001594771340 Eh    ::
         :: repulsion energy           0.038870862871 Eh    ::

    * Orbital Energies and Occupations

         #    Occupation            Energy/Eh            Energy/eV
      -------------------------------------------------------------
         1        2.0000           -0.4741650             -12.9027
         2        2.0000           -0.3976262             -10.8200
         3        2.0000           -0.3947946             -10.7429
         4        2.0000           -0.3373195              -9.1789 (HOMO)
         5                         -0.2550972              -6.9415 (LUMO)
         6                         -0.2048690              -5.5748
         7                         -0.1944150              -5.2903
         8                          0.2698184               7.3421
         9                          0.3246296               8.8336
        10                          0.3402495               9.2587
        11                          0.5889352              16.0257
      -------------------------------------------------------------
                  HL-Gap            0.0822223 Eh            2.2374 eV

     #   Z          covCN         q      C6AA      α(0)
     1   4 Be       0.907     0.268    72.050    25.459
     2   5 B        3.699     0.106    20.694     7.363
     3   1 H        0.934    -0.123     6.423     3.963
     4   1 H        0.934    -0.123     6.429     3.965
     5   1 H        0.927    -0.128     6.664     4.037

Wiberg/Mayer (AO) data.
largest (>0.10) Wiberg bond orders for each atom

     #   Z sym  total        # sym  WBO       # sym  WBO       # sym  WBO
 ---------------------------------------------------------------------------
     1   4 Be   1.254 --     2 B    0.964     5 H    0.138
     2   5 B    3.624 --     1 Be   0.964     3 H    0.908     4 H    0.908
                             5 H    0.845
     3   1 H    0.985 --     2 B    0.908
     4   1 H    0.985 --     2 B    0.908
     5   1 H    0.984 --     2 B    0.845     1 Be   0.138
 ---------------------------------------------------------------------------

molecular dipole:
                 x           y           z       tot (Debye)
 q only:       -0.873      -0.057      -0.625
   full:       -0.832      -0.329       0.061       2.279

normal termination of xtb

           -------------------------------------------------
          | TOTAL ENERGY               -3.342030230739 Eh   |
          | GRADIENT NORM               0.000280418467 Eh/α |
          | HOMO-LUMO GAP               2.237383349928 eV   |
           -------------------------------------------------

 * finished run on 2025/06/07 at 03:27:51.326
