   * xtb version 6.5.1 (conda-forge) compiled by 'runner@Mac-1657629245115.local' on 2022-07-12
          program call               : xtb Be2C4H6.xyz --gfn 2 --opt

   ID    Z sym.   atoms
    1    4 Be     1, 2
    2    6 C      3-6
    3    1 H      7-12

          :  Hamiltonian                  GFN2-xTB          :
 * total energy  :   -11.8622977 Eh     change       -0.9921221E-08 Eh
 * total energy  :   -12.0582173 Eh     change       -0.1959196E+00 Eh
 * total energy  :   -12.2758303 Eh     change       -0.2176130E+00 Eh
 * total energy  :   -12.2828640 Eh     change       -0.7033676E-02 Eh
 * total energy  :   -12.3386711 Eh     change       -0.5580715E-01 Eh
 * total energy  :   -12.3200610 Eh     change        0.1861006E-01 Eh
 * total energy  :   -12.3662223 Eh     change       -0.4616128E-01 Eh
 * total energy  :   -12.4197019 Eh     change       -0.5347958E-01 Eh
 * total energy  :   -12.4468680 Eh     change       -0.2716610E-01 Eh
 * total energy  :   -12.4581113 Eh     change       -0.1124331E-01 Eh
 * total energy  :   -12.6132267 Eh     change       -0.7274495E-05 Eh
 * total energy  :   -12.6132381 Eh     change       -0.1148688E-04 Eh
 * total energy  :   -12.6132542 Eh     change       -0.1609597E-04 Eh
 * total energy  :   -12.6132632 Eh     change       -0.8971227E-05 Eh
 * total energy  :   -12.6132703 Eh     change       -0.7054041E-05 Eh
 * total energy  :   -12.6132102 Eh     change        0.6005925E-04 Eh
 * total energy  :   -12.6132736 Eh     change       -0.6337921E-04 Eh
 * total energy  :   -12.6132785 Eh     change       -0.4908150E-05 Eh
 * total energy  :   -12.6132820 Eh     change       -0.3521693E-05 Eh
   *** GEOMETRY OPTIMIZATION CONVERGED AFTER 94 ITERATIONS ***

 final structure:
================
12
 xtb: 6.5.1 (conda-forge)
Be           2.13576718232163       -0.50734467482898        2.03032365334189
Be           3.75088453457072       -0.21712617188447        0.90854610650938
C            4.41631822625449        1.31431179785114        0.86124326666210
C            3.52042439691890        1.70900542308715        1.62805652260300
C            2.42317398694201        1.51159399504915        2.39156960144819
C            1.51876772124144        0.80147767658183        2.86434436374896
H            4.82682068233435       -0.76834173118287        3.61297984005446
H            5.29551894059851       -0.71531188436030        4.23983256787488
H            4.45456197770029        1.87785840616964        4.61139170533089
H            4.42226072605328        2.57445397872297        4.95817401370036
H            2.71907905281724        0.34059026000574        6.09188291750929
H            2.40442257229365       -0.30349907524062        6.39165544121609

          :  Hamiltonian                  GFN2-xTB          :
         :: total energy             -12.613282017391 Eh    ::
         :: gradient norm              0.000832534422 Eh/a0 ::
         :: HOMO-LUMO gap              2.709974279996 eV    ::
         :: SCC energy               -12.955257754648 Eh    ::
         :: -> dispersion             -0.005934913291 Eh    ::
         :: repulsion energy           0.341948428956 Eh    ::

    * Orbital Energies and Occupations

         #    Occupation            Energy/Eh            Energy/eV
      -------------------------------------------------------------
         1        2.0000           -0.5804686             -15.7954
         2        2.0000           -0.5606203             -15.2553
         3        2.0000           -0.5076183             -13.8130
         4        2.0000           -0.4838537             -13.1663
         5        2.0000           -0.4656850             -12.6719
         6        2.0000           -0.4577581             -12.4562
         7        2.0000           -0.4229503             -11.5091
         8        2.0000           -0.4136025             -11.2547
         9        2.0000           -0.4063384             -11.0570
        10        2.0000           -0.3570601              -9.7161
        11        2.0000           -0.3523092              -9.5868
        12        2.0000           -0.3457231              -9.4076
        13        2.0000           -0.3300097              -8.9800 (HOMO)
        14                         -0.2304200              -6.2700 (LUMO)
        15                         -0.2118603              -5.7650
        16                         -0.2034432              -5.5360
        17                         -0.1516149              -4.1257
        18                         -0.1056033              -2.8736
        19                         -0.0915213              -2.4904
        20                         -0.0823903              -2.2420
        21                          0.0000926               0.0025
        22                          0.1146154               3.1188
        23                          0.1281159               3.4862
        24                          0.1451000               3.9484
       ...                                ...                  ...
        30                          1.3085780              35.6082
      -------------------------------------------------------------
                  HL-Gap            0.0995897 Eh            2.7100 eV

     #   Z          covCN         q      C6AA      α(0)
     1   4 Be       2.515     0.385    14.833     8.891
     2   4 Be       2.519     0.385    14.825     8.889
     3   6 C        1.825    -0.286    39.949    10.212
     4   6 C        2.673    -0.097    30.422     9.025
     5   6 C        2.673    -0.097    30.424     9.026
     6   6 C        1.825    -0.287    39.965    10.214
     7   1 H        0.789    -0.017     3.455     2.923
     8   1 H        0.789     0.017     2.844     2.652
     9   1 H        0.807    -0.004     3.179     2.800
    10   1 H        0.807     0.003     3.059     2.747
    11   1 H        0.813     0.003     3.054     2.744
    12   1 H        0.813    -0.004     3.169     2.795

Wiberg/Mayer (AO) data.
largest (>0.10) Wiberg bond orders for each atom

     #   Z sym  total        # sym  WBO       # sym  WBO       # sym  WBO
 ---------------------------------------------------------------------------
     1   4 Be   1.984 --     2 Be   0.972     6 C    0.803     5 C    0.155
     2   4 Be   1.986 --     1 Be   0.972     3 C    0.803     4 C    0.155
     3   6 C    3.631 --     4 C    2.453     2 Be   0.803     6 C    0.334
     4   6 C    3.960 --     3 C    2.453     5 C    1.306     2 Be   0.155
     5   6 C    3.960 --     6 C    2.453     4 C    1.306     1 Be   0.155
     6   6 C    3.631 --     5 C    2.453     1 Be   0.803     3 C    0.334
     7   1 H    1.000 --     8 H    0.984
     8   1 H    1.000 --     7 H    0.984
     9   1 H    1.000 --    10 H    0.996
    10   1 H    1.000 --     9 H    0.996
    11   1 H    1.000 --    12 H    0.998
    12   1 H    1.000 --    11 H    0.998
 ---------------------------------------------------------------------------

molecular dipole:
                 x           y           z       tot (Debye)
 q only:       -0.022      -2.258      -0.619
   full:       -0.024      -0.960      -0.263       2.531

normal termination of xtb

           -------------------------------------------------
          | TOTAL ENERGY              -12.613282017391 Eh   |
          | GRADIENT NORM               0.000832534422 Eh/α |
          | HOMO-LUMO GAP               2.709974279996 eV   |
           -------------------------------------------------

 * finished run on 2025/06/07 at 03:27:52.932
