   * xtb version 6.5.1 (conda-forge) compiled by 'runner@Mac-1657629245115.local' on 2022-07-12
          program call               : xtb Be2C3H4.xyz --gfn 2 --opt

   ID    Z sym.   atoms
    1    4 Be     1, 2
    2    6 C      3-5
    3    1 H      6-9

          :  Hamiltonian                  GFN2-xTB          :
 * total energy  :    -8.8640664 Eh     change       -0.1470823E-11 Eh
 * total energy  :    -9.0372907 Eh     change       -0.1732243E+00 Eh
 * total energy  :    -9.1874874 Eh     change       -0.1501967E+00 Eh
 * total energy  :    -9.2546084 Eh     change       -0.6712099E-01 Eh
 * total energy  :    -9.2944592 Eh     change       -0.3985079E-01 Eh
 * total energy  :    -9.3345595 Eh     change       -0.4010033E-01 Eh
 * total energy  :    -9.3671641 Eh     change       -0.3260459E-01 Eh
 * total energy  :    -9.3836499 Eh     change       -0.1648576E-01 Eh
 * total energy  :    -9.3976465 Eh     change       -0.1399666E-01 Eh
 * total energy  :    -9.4163424 Eh     change       -0.1869589E-01 Eh
 * total energy  :    -9.6082627 Eh     change       -0.2037860E-04 Eh
 * total energy  :    -9.6082854 Eh     change       -0.2276722E-04 Eh
 * total energy  :    -9.6082935 Eh     change       -0.8074522E-05 Eh
 * total energy  :    -9.6083082 Eh     change       -0.1466276E-04 Eh
 * total energy  :    -9.6083171 Eh     change       -0.8884383E-05 Eh
 * total energy  :    -9.6083340 Eh     change       -0.1692717E-04 Eh
 * total energy  :    -9.6083375 Eh     change       -0.3462445E-05 Eh
 * total energy  :    -9.6083429 Eh     change       -0.5450944E-05 Eh
 * total energy  :    -9.6083462 Eh     change       -0.3264442E-05 Eh
   *** GEOMETRY OPTIMIZATION CONVERGED AFTER 68 ITERATIONS ***

 final structure:
================
9
 xtb: 6.5.1 (conda-forge)
Be           1.84396354756913        0.12234288571576        0.43192583562567
Be           2.48710990961756        0.16622805152984        2.21054650622326
C            3.33071634381657        0.45416066409184       -0.23028584843430
C            3.87897139235260        0.50947102184009        0.87709197876948
C            4.24308342268041        0.51804937764482        2.25403036938151
H            4.98263277838600       -0.24775384449865        2.49744961140511
H            4.63422448947254        1.48429882956508        2.57969024065568
H            2.31815017518735        0.04805363278409        5.07107238708048
H            2.40914794091800        0.04019638132621        5.85197891929347

          :  Hamiltonian                  GFN2-xTB          :
         :: total energy              -9.608346174620 Eh    ::
         :: gradient norm              0.000465233977 Eh/a0 ::
         :: HOMO-LUMO gap              3.141047902095 eV    ::
         :: SCC energy                -9.819377152254 Eh    ::
         :: -> dispersion             -0.003508251042 Eh    ::
         :: repulsion energy           0.211029426908 Eh    ::

    * Orbital Energies and Occupations

         #    Occupation            Energy/Eh            Energy/eV
      -------------------------------------------------------------
         1        2.0000           -0.5552121             -15.1081
         2        2.0000           -0.5298505             -14.4180
         3        2.0000           -0.4684032             -12.7459
         4        2.0000           -0.4504765             -12.2581
         5        2.0000           -0.4387778             -11.9398
         6        2.0000           -0.4046534             -11.0112
         7        2.0000           -0.3465611              -9.4304
         8        2.0000           -0.3423390              -9.3155
         9        2.0000           -0.3320507              -9.0356
        10        2.0000           -0.3038479              -8.2681 (HOMO)
        11                         -0.1884165              -5.1271 (LUMO)
        12                         -0.1839319              -5.0050
        13                         -0.1507770              -4.1029
        14                         -0.1245917              -3.3903
        15                         -0.0390556              -1.0628
        16                         -0.0029201              -0.0795
        17                          0.1319951               3.5918
        18                          0.1581899               4.3046
        19                          0.2708209               7.3694
        20                          0.2808349               7.6419
        21                          0.2835959               7.7170
       ...                                ...                  ...
        24                          1.7431874              47.4345
      -------------------------------------------------------------
                  HL-Gap            0.1154314 Eh            3.1410 eV

     #   Z          covCN         q      C6AA      α(0)
     1   4 Be       2.439     0.373    14.953     8.927
     2   4 Be       2.626     0.350    15.206     9.002
     3   6 C        1.866    -0.344    42.024    10.471
     4   6 C        3.356    -0.126    27.962     8.313
     5   6 C        3.660    -0.206    24.897     7.160
     6   1 H        0.924    -0.023     3.499     2.925
     7   1 H        0.924    -0.023     3.498     2.925
     8   1 H        0.783    -0.004     3.211     2.819
     9   1 H        0.783     0.004     3.060     2.752

Wiberg/Mayer (AO) data.
largest (>0.10) Wiberg bond orders for each atom

     #   Z sym  total        # sym  WBO       # sym  WBO       # sym  WBO
 ---------------------------------------------------------------------------
     1   4 Be   2.042 --     2 Be   1.004     3 C    0.813     4 C    0.159
     2   4 Be   1.917 --     1 Be   1.004     5 C    0.662     3 C    0.142
     3   6 C    3.614 --     4 C    2.532     1 Be   0.813     2 Be   0.142
     4   6 C    3.954 --     3 C    2.532     5 C    1.173     1 Be   0.159
     5   6 C    3.892 --     4 C    1.173     6 H    0.962     7 H    0.962
                             2 Be   0.662
     6   1 H    0.999 --     5 C    0.962
     7   1 H    0.999 --     5 C    0.962
     8   1 H    1.000 --     9 H    0.979
     9   1 H    0.993 --     8 H    0.979
 ---------------------------------------------------------------------------

molecular dipole:
                 x           y           z       tot (Debye)
 q only:       -2.221      -0.477       0.609
   full:       -0.691      -0.159       0.379       2.044

normal termination of xtb

           -------------------------------------------------
          | TOTAL ENERGY               -9.608346174620 Eh   |
          | GRADIENT NORM               0.000465233977 Eh/α |
          | HOMO-LUMO GAP               3.141047902095 eV   |
           -------------------------------------------------

 * finished run on 2025/06/07 at 03:27:51.662
