   * xtb version 6.5.1 (conda-forge) compiled by 'runner@Mac-1657629245115.local' on 2022-07-12
          program call               : xtb Be2C4H5.xyz --gfn 2 --opt

   ID    Z sym.   atoms
    1    4 Be     1, 2
    2    6 C      3-6
    3    1 H      7-11

          :  Hamiltonian                  GFN2-xTB          :
 * total energy  :   -11.3375027 Eh     change        0.1774191E-08 Eh
 * total energy  :   -11.5456571 Eh     change       -0.2081544E+00 Eh
 * total energy  :   -11.7704635 Eh     change       -0.2248064E+00 Eh
 * total energy  :   -11.8396291 Eh     change       -0.6916562E-01 Eh
 * total energy  :   -11.9076056 Eh     change       -0.6797652E-01 Eh
 * total energy  :   -11.9538951 Eh     change       -0.4628948E-01 Eh
 * total energy  :   -12.0003414 Eh     change       -0.4644628E-01 Eh
 * total energy  :   -12.0246984 Eh     change       -0.2435703E-01 Eh
 * total energy  :   -12.0461398 Eh     change       -0.2144138E-01 Eh
 * total energy  :   -12.0347685 Eh     change        0.1137125E-01 Eh
 * total energy  :   -12.1245950 Eh     change       -0.4777819E-04 Eh
 * total energy  :   -12.1246314 Eh     change       -0.3644393E-04 Eh
 * total energy  :   -12.1246488 Eh     change       -0.1732814E-04 Eh
 * total energy  :   -12.1246582 Eh     change       -0.9434170E-05 Eh
 * total energy  :   -12.1246689 Eh     change       -0.1066013E-04 Eh
 * total energy  :   -12.1246813 Eh     change       -0.1247257E-04 Eh
 * total energy  :   -12.1246521 Eh     change        0.2928413E-04 Eh
 * total energy  :   -12.1246867 Eh     change       -0.3467333E-04 Eh
 * total energy  :   -12.1246913 Eh     change       -0.4571938E-05 Eh
   *** GEOMETRY OPTIMIZATION CONVERGED AFTER 71 ITERATIONS ***

 final structure:
================
11
 xtb: 6.5.1 (conda-forge)
Be           1.02884825613033        1.14251689830931       -1.93992751954276
Be           2.68302770053738        1.03167138978898       -1.02539413841249
C            3.02291928056970        0.48406280389533        0.53813735085838
C            3.46204992226164        0.13223644950985        1.62484338468239
C            3.90416907157373       -0.26527558522929        2.84614252099499
C            4.29427016009914       -0.60817677039978        3.93809716881082
H            4.63159597163816       -0.92063057828911        4.88088845082861
H            4.50782692223904        1.84953974776924        4.60007998030158
H            4.61742016863484        2.51694309013004        4.99424683260294
H            3.02014589895451        0.65707808267079        6.66341271727611
H            2.79572664736379        0.16897147186246        7.22697325155482

          :  Hamiltonian                  GFN2-xTB          :
         :: total energy             -12.124691306803 Eh    ::
         :: gradient norm              0.000668678247 Eh/a0 ::
         :: HOMO-LUMO gap              0.657712169891 eV    ::
         :: SCC energy               -12.473600351731 Eh    ::
         :: -> dispersion             -0.004934912912 Eh    ::
         :: repulsion energy           0.348926135280 Eh    ::

    * Orbital Energies and Occupations

         #    Occupation            Energy/Eh            Energy/eV
      -------------------------------------------------------------
         1        2.0000           -0.5572688             -15.1641
         2        2.0000           -0.5381583             -14.6440
         3        2.0000           -0.4947600             -13.4631
         4        2.0000           -0.4543081             -12.3624
         5        2.0000           -0.4436863             -12.0733
         6        2.0000           -0.4425267             -12.0418
         7        2.0000           -0.3928665             -10.6904
         8        2.0000           -0.3917616             -10.6604
         9        2.0000           -0.3628682              -9.8741
        10        2.0000           -0.3271574              -8.9024
        11        2.0000           -0.3264873              -8.8842
        12        2.0000           -0.3113053              -8.4710
        13        1.0000           -0.2057546              -5.5989 (HOMO)
        14        0.0000           -0.1815841              -4.9412 (LUMO)
        15                         -0.1663127              -4.5256
        16                         -0.1435529              -3.9063
        17                         -0.1343137              -3.6549
        18                         -0.0532792              -1.4498
        19                         -0.0266608              -0.7255
        20                          0.0230849               0.6282
        21                          0.0525919               1.4311
        22                          0.1218459               3.3156
        23                          0.1376796               3.7465
        24                          0.1528768               4.1600
       ...                                ...                  ...
        29                          1.6355476              44.5055
      -------------------------------------------------------------
                  HL-Gap            0.0241705 Eh            0.6577 eV

     #   Z          covCN         q      C6AA      α(0)
     1   4 Be       0.976     0.189    74.827    25.927
     2   4 Be       1.817     0.329    15.603     9.150
     3   6 C        1.822    -0.315    41.006    10.346
     4   6 C        1.964    -0.056    32.584     9.218
     5   6 C        1.962    -0.033    31.942     9.127
     6   6 C        1.910    -0.131    34.798     9.527
     7   1 H        0.928     0.026     2.638     2.540
     8   1 H        0.794     0.013     2.895     2.674
     9   1 H        0.794    -0.021     3.517     2.948
    10   1 H        0.808     0.007     2.997     2.719
    11   1 H        0.808    -0.008     3.246     2.829

Wiberg/Mayer (AO) data.
largest (>0.10) Wiberg bond orders for each atom

     #   Z sym  total        # sym  WBO       # sym  WBO       # sym  WBO
 ---------------------------------------------------------------------------
     1   4 Be   1.116 --     2 Be   1.058
     2   4 Be   1.901 --     1 Be   1.058     3 C    0.782
     3   6 C    3.686 --     4 C    2.613     2 Be   0.782     6 C    0.238
     4   6 C    3.933 --     3 C    2.613     5 C    1.233
     5   6 C    3.962 --     6 C    2.683     4 C    1.233
     6   6 C    3.919 --     5 C    2.683     7 H    0.976     3 C    0.238
     7   1 H    0.998 --     6 C    0.976
     8   1 H    1.000 --     9 H    0.989
     9   1 H    0.999 --     8 H    0.989
    10   1 H    1.000 --    11 H    0.998
    11   1 H    1.000 --    10 H    0.998
 ---------------------------------------------------------------------------

molecular dipole:
                 x           y           z       tot (Debye)
 q only:       -1.282       0.821      -2.834
   full:       -0.695       0.541      -1.871       5.256

normal termination of xtb

           -------------------------------------------------
          | TOTAL ENERGY              -12.124691306803 Eh   |
          | GRADIENT NORM               0.000668678247 Eh/α |
          | HOMO-LUMO GAP               0.657712169891 eV   |
           -------------------------------------------------

 * finished run on 2025/06/07 at 03:27:52.292
