   * xtb version 6.5.1 (conda-forge) compiled by 'runner@Mac-1657629245115.local' on 2022-07-12
          program call               : xtb Be3C3H6.xyz --gfn 2 --opt

   ID    Z sym.   atoms
    1    4 Be     1-3
    2    6 C      4-6
    3    1 H      7-12

          :  Hamiltonian                  GFN2-xTB          :
 * total energy  :   -10.5076220 Eh     change        0.1215357E-08 Eh
 * total energy  :   -10.6716582 Eh     change       -0.1640362E+00 Eh
 * total energy  :   -10.8108895 Eh     change       -0.1392314E+00 Eh
 * total energy  :   -10.9005728 Eh     change       -0.8968331E-01 Eh
 * total energy  :   -10.9363089 Eh     change       -0.3573606E-01 Eh
 * total energy  :   -10.9469212 Eh     change       -0.1061225E-01 Eh
 * total energy  :   -10.9764632 Eh     change       -0.2954205E-01 Eh
 * total energy  :   -11.0117522 Eh     change       -0.3528898E-01 Eh
 * total energy  :   -11.0254969 Eh     change       -0.1374475E-01 Eh
 * total energy  :   -11.0520629 Eh     change       -0.2656596E-01 Eh
 * total energy  :   -11.2228870 Eh     change       -0.3534398E-04 Eh
 * total energy  :   -11.2229112 Eh     change       -0.2420128E-04 Eh
 * total energy  :   -11.2228825 Eh     change        0.2870855E-04 Eh
 * total energy  :   -11.2229386 Eh     change       -0.5610978E-04 Eh
 * total energy  :   -11.2229490 Eh     change       -0.1037865E-04 Eh
 * total energy  :   -11.2229729 Eh     change       -0.2385332E-04 Eh
 * total energy  :   -11.2229853 Eh     change       -0.1245528E-04 Eh
 * total energy  :   -11.2229925 Eh     change       -0.7214049E-05 Eh
 * total energy  :   -11.2229960 Eh     change       -0.3438168E-05 Eh
   *** GEOMETRY OPTIMIZATION CONVERGED AFTER 123 ITERATIONS ***

 final structure:
================
12
 xtb: 6.5.1 (conda-forge)
Be           1.29241831771716        1.40917573179594        1.99943651433982
Be           2.61841806509009        0.14946389081202        1.49535190753410
Be           0.97979780209300        3.18474109111494        1.40642502435668
C            2.97880848810041        1.51125022818197        0.61678411189126
C            2.33570936738595        2.69393580066417        0.58411567874092
C            3.18867027244102        2.42451071541913        1.79494685137395
H            2.70418419602284        2.18478160406293        2.77232715632653
H            4.13084048358081        2.94436797954385        1.97537475641494
H            2.27662915012264        4.36818341495567        4.31742384950376
H            2.77342226652719        4.95606989686306        4.44029606314678
H            1.02589637785485        1.63434836817675        5.64795416380270
H            0.92040521305671        1.51995627842032        4.87706392251533

          :  Hamiltonian                  GFN2-xTB          :
         :: total energy             -11.222995965152 Eh    ::
         :: gradient norm              0.000416005646 Eh/a0 ::
         :: HOMO-LUMO gap              3.349464723350 eV    ::
         :: SCC energy               -11.438509664217 Eh    ::
         :: -> dispersion             -0.005923412811 Eh    ::
         :: repulsion energy           0.215500472469 Eh    ::

    * Orbital Energies and Occupations

         #    Occupation            Energy/Eh            Energy/eV
      -------------------------------------------------------------
         1        2.0000           -0.5703172             -15.5191
         2        2.0000           -0.5076793             -13.8147
         3        2.0000           -0.4730128             -12.8713
         4        2.0000           -0.4678595             -12.7311
         5        2.0000           -0.4541694             -12.3586
         6        2.0000           -0.4297544             -11.6942
         7        2.0000           -0.3813251             -10.3764
         8        2.0000           -0.3369322              -9.1684
         9        2.0000           -0.3014451              -8.2027
        10        2.0000           -0.3011029              -8.1934
        11        2.0000           -0.2859184              -7.7802
        12        2.0000           -0.2776578              -7.5555 (HOMO)
        13                         -0.1545673              -4.2060 (LUMO)
        14                         -0.1483819              -4.0377
        15                         -0.1172163              -3.1896
        16                         -0.0994297              -2.7056
        17                         -0.0756452              -2.0584
        18                          0.0212343               0.5778
        19                          0.0667144               1.8154
        20                          0.0676368               1.8405
        21                          0.1258155               3.4236
        22                          0.1611469               4.3850
        23                          0.1861053               5.0642
       ...                                ...                  ...
        30                          2.0278646              55.1810
      -------------------------------------------------------------
                  HL-Gap            0.1230906 Eh            3.3495 eV

     #   Z          covCN         q      C6AA      α(0)
     1   4 Be       3.809     0.303    15.733     9.157
     2   4 Be       2.083     0.327    15.467     9.081
     3   4 Be       2.077     0.329    15.452     9.077
     4   6 C        3.341    -0.313    33.393     9.136
     5   6 C        3.350    -0.313    33.161     9.075
     6   6 C        4.864    -0.032    21.051     6.516
     7   1 H        1.144    -0.186     9.776     4.882
     8   1 H        0.924    -0.097     5.462     3.655
     9   1 H        0.805    -0.003     3.171     2.797
    10   1 H        0.805    -0.000     3.118     2.774
    11   1 H        0.782    -0.000     3.140     2.788
    12   1 H        0.782    -0.013     3.372     2.889

Wiberg/Mayer (AO) data.
largest (>0.10) Wiberg bond orders for each atom

     #   Z sym  total        # sym  WBO       # sym  WBO       # sym  WBO
 ---------------------------------------------------------------------------
     1   4 Be   1.956 --     2 Be   0.901     3 Be   0.899
     2   4 Be   1.950 --     1 Be   0.901     4 C    0.805
     3   4 Be   1.952 --     1 Be   0.899     5 C    0.806
     4   6 C    3.626 --     5 C    1.687     6 C    0.940     2 Be   0.805
     5   6 C    3.627 --     4 C    1.687     6 C    0.940     3 Be   0.806
     6   6 C    3.883 --     8 H    0.953     5 C    0.940     4 C    0.940
                             7 H    0.933
Note: The following floating-point exceptions are signalling: IEEE_UNDERFLOW_FLAG
normal termination of xtb
     7   1 H    0.965 --     6 C    0.933
     8   1 H    0.991 --     6 C    0.953
     9   1 H    1.000 --    10 H    0.996
    10   1 H    1.000 --     9 H    0.996
    11   1 H    0.997 --    12 H    0.986
    12   1 H    1.000 --    11 H    0.986
 ---------------------------------------------------------------------------

molecular dipole:
                 x           y           z       tot (Debye)
 q only:       -2.119      -1.138       0.631
   full:        0.448       0.268       0.494       1.826

           -------------------------------------------------
          | TOTAL ENERGY              -11.222995965152 Eh   |
          | GRADIENT NORM               0.000416005646 Eh/α |
          | HOMO-LUMO GAP               3.349464723350 eV   |
           -------------------------------------------------

 * finished run on 2025/06/07 at 03:27:53.420
