   * xtb version 6.5.1 (conda-forge) compiled by 'runner@Mac-1657629245115.local' on 2022-07-12
          program call               : xtb BeC2H3.xyz --gfn 2 --opt

   ID    Z sym.   atoms
    1    4 Be     1
    2    6 C      2, 3
    3    1 H      4-6

          :  Hamiltonian                  GFN2-xTB          :
 * total energy  :    -5.8536630 Eh     change        0.1171466E-08 Eh
 * total energy  :    -5.9778876 Eh     change       -0.1242246E+00 Eh
 * total energy  :    -6.1066515 Eh     change       -0.1287639E+00 Eh
 * total energy  :    -6.1101652 Eh     change       -0.3513722E-02 Eh
 * total energy  :    -6.1629994 Eh     change       -0.5283426E-01 Eh
 * total energy  :    -6.2038744 Eh     change       -0.4087494E-01 Eh
 * total energy  :    -6.2312373 Eh     change       -0.2736296E-01 Eh
 * total energy  :    -6.2374176 Eh     change       -0.6180277E-02 Eh
 * total energy  :    -6.2510947 Eh     change       -0.1367708E-01 Eh
 * total energy  :    -6.2554463 Eh     change       -0.4351557E-02 Eh
 * total energy  :    -6.2719033 Eh     change       -0.5539609E-04 Eh
 * total energy  :    -6.2719181 Eh     change       -0.1479291E-04 Eh
 * total energy  :    -6.2719547 Eh     change       -0.3658993E-04 Eh
 * total energy  :    -6.2719883 Eh     change       -0.3357837E-04 Eh
 * total energy  :    -6.2719408 Eh     change        0.4751123E-04 Eh
 * total energy  :    -6.2720066 Eh     change       -0.6578707E-04 Eh
 * total energy  :    -6.2720113 Eh     change       -0.4670135E-05 Eh
 * total energy  :    -6.2720183 Eh     change       -0.7079045E-05 Eh
 * total energy  :    -6.2720214 Eh     change       -0.3025322E-05 Eh
   *** GEOMETRY OPTIMIZATION CONVERGED AFTER 56 ITERATIONS ***

 final structure:
================
6
 xtb: 6.5.1 (conda-forge)
Be          -0.64106624140339        0.10608326425127        0.26128620644681
C            2.07126648369647       -0.17917171876521        1.23447420484661
C            0.94147900870974       -0.07129640577869        0.82008004088646
H            3.06097255390564       -0.27826946125061        1.59292555328950
H            0.45739110459771        0.48572246152055        3.51901051628316
H            0.26995709049279        0.64187686002575        4.25972347825244

          :  Hamiltonian                  GFN2-xTB          :
         :: total energy              -6.272021358105 Eh    ::
         :: gradient norm              0.000420708645 Eh/a0 ::
         :: HOMO-LUMO gap              1.801742684026 eV    ::
         :: SCC energy                -6.442885827252 Eh    ::
         :: -> dispersion             -0.002088306618 Eh    ::
         :: repulsion energy           0.170863054402 Eh    ::

    * Orbital Energies and Occupations

         #    Occupation            Energy/Eh            Energy/eV
      -------------------------------------------------------------
         1        2.0000           -0.5584589             -15.1964
         2        2.0000           -0.4778037             -13.0017
         3        2.0000           -0.4575409             -12.4503
         4        2.0000           -0.3838407             -10.4448
         5        2.0000           -0.3723676             -10.1326
         6        2.0000           -0.3717692             -10.1164
         7        1.0000           -0.2447975              -6.6613 (HOMO)
         8                         -0.1785847              -4.8595 (LUMO)
         9                         -0.1784660              -4.8563
        10                         -0.0579572              -1.5771
        11                         -0.0579256              -1.5762
        12                          0.1231101               3.3500
        13                          0.1611941               4.3863
        14                          0.3469697               9.4415
        15                          1.2871104              35.0241
      -------------------------------------------------------------
                  HL-Gap            0.0662128 Eh            1.8017 eV

     #   Z          covCN         q      C6AA      α(0)
     1   4 Be       0.841     0.339    69.618    25.007
     2   6 C        1.909    -0.092    33.651     9.368
     3   6 C        1.821    -0.254    38.812    10.066
     4   1 H        0.927     0.013     2.848     2.639
     5   1 H        0.804     0.008     2.983     2.713
     6   1 H        0.804    -0.013     3.358     2.879

Wiberg/Mayer (AO) data.
largest (>0.10) Wiberg bond orders for each atom

     #   Z sym  total        # sym  WBO       # sym  WBO       # sym  WBO
 ---------------------------------------------------------------------------
     1   4 Be   0.960 --     3 C    0.841
     2   6 C    3.965 --     3 C    2.897     4 H    0.965
     3   6 C    3.756 --     2 C    2.897     1 Be   0.841
     4   1 H    0.997 --     2 C    0.965
     5   1 H    1.000 --     6 H    0.993
     6   1 H    1.000 --     5 H    0.993
 ---------------------------------------------------------------------------

normal termination of xtb

molecular dipole:
                 x           y           z       tot (Debye)
 q only:       -1.151       0.118      -0.460
   full:       -0.476       0.045      -0.220       1.338

           -------------------------------------------------
          | TOTAL ENERGY               -6.272021358105 Eh   |
          | GRADIENT NORM               0.000420708645 Eh/α |
          | HOMO-LUMO GAP               1.801742684026 eV   |
           -------------------------------------------------

 * finished run on 2025/06/07 at 03:27:53.617
