   * xtb version 6.5.1 (conda-forge) compiled by 'runner@Mac-1657629245115.local' on 2022-07-12
          program call               : xtb BeC2H6.xyz --gfn 2 --opt

   ID    Z sym.   atoms
    1    4 Be     1
    2    6 C      2, 3
    3    1 H      4-9

          :  Hamiltonian                  GFN2-xTB          :
 * total energy  :    -7.3198985 Eh     change        0.4002560E-08 Eh
 * total energy  :    -7.4548190 Eh     change       -0.1349204E+00 Eh
 * total energy  :    -7.5269169 Eh     change       -0.7209791E-01 Eh
 * total energy  :    -7.5545530 Eh     change       -0.2763615E-01 Eh
 * total energy  :    -7.5834790 Eh     change       -0.2892593E-01 Eh
 * total energy  :    -7.6186792 Eh     change       -0.3520025E-01 Eh
 * total energy  :    -7.6362479 Eh     change       -0.1756870E-01 Eh
 * total energy  :    -7.6514447 Eh     change       -0.1519684E-01 Eh
 * total energy  :    -7.6589568 Eh     change       -0.7512049E-02 Eh
 * total energy  :    -7.6682819 Eh     change       -0.9325082E-02 Eh
 * total energy  :    -7.6968180 Eh     change       -0.3219326E-04 Eh
 * total energy  :    -7.6968323 Eh     change       -0.1430763E-04 Eh
 * total energy  :    -7.6968445 Eh     change       -0.1218377E-04 Eh
 * total energy  :    -7.6968643 Eh     change       -0.1983387E-04 Eh
 * total energy  :    -7.6968734 Eh     change       -0.9053748E-05 Eh
 * total energy  :    -7.6968788 Eh     change       -0.5474445E-05 Eh
 * total energy  :    -7.6968813 Eh     change       -0.2494656E-05 Eh
 * total energy  :    -7.6968864 Eh     change       -0.5054994E-05 Eh
 * total energy  :    -7.6968881 Eh     change       -0.1744861E-05 Eh
   *** GEOMETRY OPTIMIZATION CONVERGED AFTER 84 ITERATIONS ***

 final structure:
================
9
 xtb: 6.5.1 (conda-forge)
Be           0.24811877219999        1.51095287589128        1.99755877215201
C            2.09595745444214       -0.55244068833789        1.48235045672406
C            1.28864680780095        0.37191774702783        1.71005936887260
H            4.01191467457179       -0.84807761373875        2.22737188851607
H            4.74755266353954       -0.93624714124968        2.53071138086717
H           -0.73113257454001        2.60982323365502        2.29807357448992
H           -1.29387920831077        3.19546801959846        2.44236605526487
H           -0.07881058793005       -0.45580211615688        4.37882918630773
H           -0.43236800167195       -0.66592631687699        5.04467931702429

          :  Hamiltonian                  GFN2-xTB          :
         :: total energy              -7.696888126657 Eh    ::
         :: gradient norm              0.000441010391 Eh/a0 ::
         :: HOMO-LUMO gap              2.221532082117 eV    ::
         :: SCC energy                -7.889598325713 Eh    ::
         :: -> dispersion             -0.002390953829 Eh    ::
         :: repulsion energy           0.192708616766 Eh    ::

    * Orbital Energies and Occupations

         #    Occupation            Energy/Eh            Energy/eV
      -------------------------------------------------------------
         1        2.0000           -0.5398224             -14.6893
         2        2.0000           -0.5380206             -14.6403
         3        2.0000           -0.4693440             -12.7715
         4        2.0000           -0.4303309             -11.7099
         5        2.0000           -0.4079151             -11.0999
         6        2.0000           -0.3447016              -9.3798
         7        2.0000           -0.3432859              -9.3413
         8        2.0000           -0.3065812              -8.3425 (HOMO)
         9                         -0.2249414              -6.1210 (LUMO)
        10                         -0.2013167              -5.4781
        11                         -0.2010866              -5.4718
        12                         -0.0522530              -1.4219
        13                         -0.0498918              -1.3576
        14                          0.1187741               3.2320
        15                          0.1923599               5.2344
        16                          0.2294536               6.2438
        17                          0.7169555              19.5094
        18                          0.9667637              26.3070
      -------------------------------------------------------------
                  HL-Gap            0.0816398 Eh            2.2215 eV

     #   Z          covCN         q      C6AA      α(0)
     1   4 Be       1.621     0.448    15.364     9.277
     2   6 C        0.984    -0.227    43.695    11.104
     3   6 C        1.824    -0.255    38.844    10.070
     4   1 H        0.730     0.035     2.642     2.572
     5   1 H        0.730    -0.057     4.468     3.344
     6   1 H        1.400     0.015     2.789     2.607
     7   1 H        0.626     0.040     2.831     2.724
     8   1 H        0.795     0.004     3.058     2.749
     9   1 H        0.795    -0.003     3.180     2.803

Wiberg/Mayer (AO) data.
largest (>0.10) Wiberg bond orders for each atom

normal termination of xtb
     #   Z sym  total        # sym  WBO       # sym  WBO       # sym  WBO
 ---------------------------------------------------------------------------
     1   4 Be   2.082 --     3 C    1.432     2 C    0.433     6 H    0.121
     2   6 C    3.024 --     3 C    2.482     1 Be   0.433
     3   6 C    3.958 --     2 C    2.482     1 Be   1.432
     4   1 H    0.999 --     5 H    0.951
     5   1 H    0.995 --     4 H    0.951
     6   1 H    1.000 --     7 H    0.871     1 Be   0.121
     7   1 H    0.997 --     6 H    0.871
     8   1 H    1.000 --     9 H    0.988
     9   1 H    1.000 --     8 H    0.988
 ---------------------------------------------------------------------------

molecular dipole:
                 x           y           z       tot (Debye)
 q only:       -1.675       1.703       0.357
   full:       -2.797       2.936       0.660      10.442

           -------------------------------------------------
          | TOTAL ENERGY               -7.696888126657 Eh   |
          | GRADIENT NORM               0.000441010391 Eh/α |
          | HOMO-LUMO GAP               2.221532082117 eV   |
           -------------------------------------------------

 * finished run on 2025/06/07 at 03:27:53.856
