   * xtb version 6.5.1 (conda-forge) compiled by 'runner@Mac-1657629245115.local' on 2022-07-12
          program call               : xtb BeC3H6.xyz --gfn 2 --opt

   ID    Z sym.   atoms
    1    4 Be     1
    2    6 C      2-4
    3    1 H      5-10

          :  Hamiltonian                  GFN2-xTB          :
 * total energy  :    -9.2808198 Eh     change        0.1408615E-09 Eh
 * total energy  :    -9.4486062 Eh     change       -0.1677864E+00 Eh
 * total energy  :    -9.5894769 Eh     change       -0.1408707E+00 Eh
 * total energy  :    -9.5910657 Eh     change       -0.1588768E-02 Eh
 * total energy  :    -9.6319207 Eh     change       -0.4085504E-01 Eh
 * total energy  :    -9.6639028 Eh     change       -0.3198204E-01 Eh
 * total energy  :    -9.6866731 Eh     change       -0.2277034E-01 Eh
 * total energy  :    -9.6995225 Eh     change       -0.1284937E-01 Eh
 * total energy  :    -9.7136717 Eh     change       -0.1414920E-01 Eh
 * total energy  :    -9.7128245 Eh     change        0.8472188E-03 Eh
 * total energy  :    -9.7597001 Eh     change       -0.1744091E-04 Eh
 * total energy  :    -9.7597708 Eh     change       -0.7063642E-04 Eh
 * total energy  :    -9.7597937 Eh     change       -0.2290126E-04 Eh
 * total energy  :    -9.7598282 Eh     change       -0.3452808E-04 Eh
 * total energy  :    -9.7598347 Eh     change       -0.6439840E-05 Eh
 * total energy  :    -9.7598643 Eh     change       -0.2963437E-04 Eh
 * total energy  :    -9.7598718 Eh     change       -0.7536072E-05 Eh
 * total energy  :    -9.7598770 Eh     change       -0.5195570E-05 Eh
 * total energy  :    -9.7598809 Eh     change       -0.3852398E-05 Eh
   *** GEOMETRY OPTIMIZATION CONVERGED AFTER 109 ITERATIONS ***

 final structure:
================
10
 xtb: 6.5.1 (conda-forge)
Be           0.45540603648904       -0.03451654329159        0.54901678938327
C            0.01965936255066        1.06111727750615        1.69781155277473
C            0.52866617769035        0.94220055714175        2.99188102431844
C            0.97642685811035       -0.04752603305563        2.11232024625577
H            3.05058413430529       -0.87357877977500        3.48083322202180
H            3.69241748379968       -1.16351706239901        3.81958575981905
H            1.81610086910791        2.27276392342085        3.73576301670377
H            2.39222400600004        2.79783220569965        3.93520418646311
H           -0.65591708437304        0.49640574538572        4.52770754866207
H           -1.18756784366690        0.24553370936297        5.07737665358539

          :  Hamiltonian                  GFN2-xTB          :
         :: total energy              -9.759880873434 Eh    ::
         :: gradient norm              0.000899932850 Eh/a0 ::
         :: HOMO-LUMO gap              1.839960067998 eV    ::
         :: SCC energy                -9.955480837631 Eh    ::
         :: -> dispersion             -0.003834186933 Eh    ::
         :: repulsion energy           0.195588463233 Eh    ::

    * Orbital Energies and Occupations

         #    Occupation            Energy/Eh            Energy/eV
      -------------------------------------------------------------
         1        2.0000           -0.6203051             -16.8794
         2        2.0000           -0.4986299             -13.5684
         3        2.0000           -0.4965026             -13.5105
         4        2.0000           -0.4486516             -12.2084
         5        2.0000           -0.4419466             -12.0260
         6        2.0000           -0.4375143             -11.9054
         7        2.0000           -0.4143923             -11.2762
         8        2.0000           -0.3803704             -10.3504
         9        2.0000           -0.3676892             -10.0053
        10        2.0000           -0.3348437              -9.1116 (HOMO)
        11                         -0.2672264              -7.2716 (LUMO)
        12                         -0.2411238              -6.5613
        13                         -0.2378244              -6.4715
        14                         -0.1180907              -3.2134
        15                         -0.1156032              -3.1457
        16                          0.0805001               2.1905
        17                          0.1540453               4.1918
        18                          0.1614769               4.3940
        19                          0.1866968               5.0803
        20                          0.3034690               8.2578
        21                          0.4271630              11.6237
        22                          0.5536893              15.0667
      -------------------------------------------------------------
                  HL-Gap            0.0676173 Eh            1.8400 eV

     #   Z          covCN         q      C6AA      α(0)
     1   4 Be       1.715     0.508    14.032     8.733
     2   6 C        2.797    -0.187    32.882     9.394
     3   6 C        1.992    -0.114    34.201     9.444
     4   6 C        2.797    -0.183    32.789     9.381
     5   1 H        0.798     0.014     2.882     2.668
     6   1 H        0.798    -0.019     3.467     2.926
     7   1 H        0.714     0.023     2.846     2.675
     8   1 H        0.714    -0.033     3.907     3.135
     9   1 H        0.713     0.023     2.843     2.674
    10   1 H        0.713    -0.033     3.924     3.142

Wiberg/Mayer (AO) data.
largest (>0.10) Wiberg bond orders for each atom

     #   Z sym  total        # sym  WBO       # sym  WBO       # sym  WBO
 ---------------------------------------------------------------------------
     1   4 Be   2.151 --     2 C    0.906     4 C    0.899     3 C    0.313
     2   6 C    3.473 --     4 C    1.275     3 C    1.272     1 Be   0.906
     3   6 C    3.047 --     2 C    1.272     4 C    1.265     1 Be   0.313
     4   6 C    3.466 --     2 C    1.275     3 C    1.265     1 Be   0.899
     5   1 H    1.000 --     6 H    0.992
     6   1 H    1.000 --     5 H    0.992
     7   1 H    0.999 --     8 H    0.933
     8   1 H    0.999 --     7 H    0.933
     9   1 H    0.999 --    10 H    0.932
    10   1 H    0.999 --     9 H    0.932
 ---------------------------------------------------------------------------

molecular dipole:
                 x           y           z       tot (Debye)
 q only:       -0.094      -0.643      -1.690
   full:       -0.138      -1.104      -2.863       7.806

           -------------------------------------------------
          | TOTAL ENERGY               -9.759880873434 Eh   |
          | GRADIENT NORM               0.000899932850 Eh/α |
          | HOMO-LUMO GAP               1.839960067998 eV   |
           -------------------------------------------------

 * finished run on 2025/06/07 at 03:27:55.425
normal termination of xtb
