   * xtb version 6.5.1 (conda-forge) compiled by 'runner@Mac-1657629245115.local' on 2022-07-12
          program call               : xtb BeC3H5.xyz --gfn 2 --opt

   ID    Z sym.   atoms
    1    4 Be     1
    2    6 C      2-4
    3    1 H      5-9

          :  Hamiltonian                  GFN2-xTB          :
 * total energy  :    -8.7572403 Eh     change        0.1406590E-09 Eh
 * total energy  :    -8.9255252 Eh     change       -0.1682849E+00 Eh
 * total energy  :    -9.0936890 Eh     change       -0.1681638E+00 Eh
 * total energy  :    -9.1561034 Eh     change       -0.6241437E-01 Eh
 * total energy  :    -9.2069498 Eh     change       -0.5084642E-01 Eh
 * total energy  :    -9.2508415 Eh     change       -0.4389171E-01 Eh
 * total energy  :    -9.2571763 Eh     change       -0.6334799E-02 Eh
 * total energy  :    -9.2601094 Eh     change       -0.2933141E-02 Eh
 * total energy  :    -9.2627646 Eh     change       -0.2655205E-02 Eh
 * total energy  :    -9.2699256 Eh     change       -0.7160963E-02 Eh
 * total energy  :    -9.4416894 Eh     change       -0.1186022E-04 Eh
 * total energy  :    -9.4416991 Eh     change       -0.9633716E-05 Eh
 * total energy  :    -9.4417159 Eh     change       -0.1686312E-04 Eh
 * total energy  :    -9.4417317 Eh     change       -0.1575239E-04 Eh
 * total energy  :    -9.4417437 Eh     change       -0.1205270E-04 Eh
 * total energy  :    -9.4417495 Eh     change       -0.5799588E-05 Eh
 * total energy  :    -9.4417548 Eh     change       -0.5257187E-05 Eh
 * total energy  :    -9.4417675 Eh     change       -0.1274623E-04 Eh
 * total energy  :    -9.4417720 Eh     change       -0.4470650E-05 Eh
   *** GEOMETRY OPTIMIZATION CONVERGED AFTER 153 ITERATIONS ***

 final structure:
================
9
 xtb: 6.5.1 (conda-forge)
Be           1.60170055379893        0.21068179950728        0.99745463947943
C            2.19282062193672        1.03261316247444        2.57637382191934
C            0.96635089643653        0.39606047919114        2.70811595046381
C            0.16584475242614       -0.26741155922347        1.98497440127053
H           -0.77900199000025       -0.72518544188927        2.17737144010953
H            2.16999293983489        2.11148370497288        2.68839285356344
H            3.00073195559580        0.61005022393624        3.16423855402131
H            0.36009843257047        0.43153632682769        4.73181786598590
H            0.17746183706551        0.46815530432146        5.50326047309668

          :  Hamiltonian                  GFN2-xTB          :
         :: total energy              -9.441772013920 Eh    ::
         :: gradient norm              0.000325507918 Eh/a0 ::
         :: HOMO-LUMO gap              2.590036342860 eV    ::
         :: SCC energy                -9.647886705034 Eh    ::
         :: -> dispersion             -0.003531142938 Eh    ::
         :: repulsion energy           0.206112216256 Eh    ::

    * Orbital Energies and Occupations

         #    Occupation            Energy/Eh            Energy/eV
      -------------------------------------------------------------
         1        2.0000           -0.5999419             -16.3252
         2        2.0000           -0.5630109             -15.3203
         3        2.0000           -0.4997760             -13.5996
         4        2.0000           -0.4722330             -12.8501
         5        2.0000           -0.4681787             -12.7398
         6        2.0000           -0.4414458             -12.0124
         7        2.0000           -0.4269724             -11.6185
         8        2.0000           -0.3821574             -10.3990
         9        2.0000           -0.3535959              -9.6218
        10        1.0000           -0.2746015              -7.4723 (HOMO)
        11                         -0.1794194              -4.8822 (LUMO)
        12                         -0.1693105              -4.6072
        13                         -0.1394528              -3.7947
        14                          0.0157492               0.4286
        15                          0.1237217               3.3666
        16                          0.1541588               4.1949
        17                          0.2493835               6.7861
        18                          0.2834562               7.7132
        19                          0.3513718               9.5613
        20                          0.4792526              13.0411
        21                          0.8861936              24.1146
      -------------------------------------------------------------
                  HL-Gap            0.0951821 Eh            2.5900 eV

     #   Z          covCN         q      C6AA      α(0)
     1   4 Be       2.463     0.426    14.407     8.762
     2   6 C        3.648    -0.181    24.422     7.100
     3   6 C        2.784    -0.066    29.624     8.915
     4   6 C        2.741    -0.196    33.144     9.426
     5   1 H        0.927     0.023     2.692     2.566
     6   1 H        0.925     0.003     3.013     2.715
     7   1 H        0.925     0.003     3.011     2.713
     8   1 H        0.756     0.005     3.076     2.766
     9   1 H        0.756    -0.016     3.461     2.934

Wiberg/Mayer (AO) data.
largest (>0.10) Wiberg bond orders for each atom

     #   Z sym  total        # sym  WBO       # sym  WBO       # sym  WBO
 ---------------------------------------------------------------------------
     1   4 Be   1.139 --     4 C    0.538     2 C    0.502     3 C    0.107
     2   6 C    3.916 --     3 C    1.359     7 H    0.966     6 H    0.966
                             1 Be   0.502
     3   6 C    3.760 --     4 C    2.234     2 C    1.359     1 Be   0.107
     4   6 C    3.912 --     3 C    2.234     5 H    0.967     1 Be   0.538
     5   1 H    0.999 --     4 C    0.967
     6   1 H    1.000 --     2 C    0.966
     7   1 H    1.000 --     2 C    0.966
     8   1 H    1.000 --     9 H    0.959
     9   1 H    0.988 --     8 H    0.959
 ---------------------------------------------------------------------------

molecular dipole:
                 x           y           z       tot (Debye)
 q only:        0.348      -0.162      -1.148
   full:       -0.007       0.058       0.186       0.495

           -------------------------------------------------
          | TOTAL ENERGY               -9.441772013920 Eh   |
          | GRADIENT NORM               0.000325507918 Eh/α |
Note: The following floating-point exceptions are signalling: IEEE_UNDERFLOW_FLAG
normal termination of xtb
          | HOMO-LUMO GAP               2.590036342860 eV   |
           -------------------------------------------------

 * finished run on 2025/06/07 at 03:27:54.952
