   * xtb version 6.5.1 (conda-forge) compiled by 'runner@Mac-1657629245115.local' on 2022-07-12
          program call               : xtb BeC3H4.xyz --gfn 2 --opt

   ID    Z sym.   atoms
    1    4 Be     1
    2    6 C      2-4
    3    1 H      5-8

          :  Hamiltonian                  GFN2-xTB          :
 * total energy  :    -8.2428769 Eh     change       -0.3563621E-09 Eh
 * total energy  :    -8.4246828 Eh     change       -0.1818059E+00 Eh
 * total energy  :    -8.5855008 Eh     change       -0.1608180E+00 Eh
 * total energy  :    -8.5889538 Eh     change       -0.3452920E-02 Eh
 * total energy  :    -8.6458407 Eh     change       -0.5688691E-01 Eh
 * total energy  :    -8.6633547 Eh     change       -0.1751405E-01 Eh
 * total energy  :    -8.6774045 Eh     change       -0.1404982E-01 Eh
 * total energy  :    -8.6962548 Eh     change       -0.1885023E-01 Eh
 * total energy  :    -8.7147093 Eh     change       -0.1845451E-01 Eh
 * total energy  :    -8.7411538 Eh     change       -0.2644449E-01 Eh
 * total energy  :    -8.8602259 Eh     change        0.1113591E-04 Eh
 * total energy  :    -8.8603745 Eh     change       -0.1485732E-03 Eh
 * total energy  :    -8.8604199 Eh     change       -0.4538127E-04 Eh
 * total energy  :    -8.8604674 Eh     change       -0.4752456E-04 Eh
 * total energy  :    -8.8605590 Eh     change       -0.9165242E-04 Eh
 * total energy  :    -8.8605822 Eh     change       -0.2315670E-04 Eh
 * total energy  :    -8.8605994 Eh     change       -0.1717361E-04 Eh
 * total energy  :    -8.8606178 Eh     change       -0.1841625E-04 Eh
 * total energy  :    -8.8606220 Eh     change       -0.4244887E-05 Eh
   *** GEOMETRY OPTIMIZATION CONVERGED AFTER 72 ITERATIONS ***

 final structure:
================
8
 xtb: 6.5.1 (conda-forge)
Be           0.65837763578856        0.00855352307845        0.51526899271167
C            0.61195546052110        1.13407692906803        1.62071280383077
C            1.23102922159383        1.18301477877038        2.76029756295885
C            1.65105813375256       -0.17301003630794        2.07392563416048
H            1.32916053138632       -0.98239158060019        2.71744367318292
H            2.72409107723828       -0.14956078241375        1.92824112703675
H            0.38603246570172        1.10591754330317        4.60951353467888
H            0.03229547402617        0.96844662509633        5.31809667143051

          :  Hamiltonian                  GFN2-xTB          :
         :: total energy              -8.860622037435 Eh    ::
         :: gradient norm              0.000933787315 Eh/a0 ::
         :: HOMO-LUMO gap              1.808808512660 eV    ::
         :: SCC energy                -9.024504623408 Eh    ::
         :: -> dispersion             -0.003133791042 Eh    ::
         :: repulsion energy           0.163881788464 Eh    ::

    * Orbital Energies and Occupations

         #    Occupation            Energy/Eh            Energy/eV
      -------------------------------------------------------------
         1        2.0000           -0.6037251             -16.4282
         2        2.0000           -0.5479576             -14.9107
         3        2.0000           -0.4820614             -13.1176
         4        2.0000           -0.4778300             -13.0024
         5        2.0000           -0.4362323             -11.8705
         6        2.0000           -0.4254352             -11.5767
         7        2.0000           -0.3771572             -10.2630
         8        2.0000           -0.3606660              -9.8142
         9        2.0000           -0.3322964              -9.0422 (HOMO)
        10                         -0.2658239              -7.2334 (LUMO)
        11                         -0.2282801              -6.2118
        12                         -0.1449456              -3.9442
        13                         -0.1028944              -2.7999
        14                         -0.0350325              -0.9533
        15                          0.0741884               2.0188
        16                          0.1751790               4.7669
        17                          0.2128725               5.7926
        18                          0.2579892               7.0202
        19                          0.4769872              12.9795
        20                          0.6943629              18.8946
      -------------------------------------------------------------
                  HL-Gap            0.0664725 Eh            1.8088 eV

     #   Z          covCN         q      C6AA      α(0)
     1   4 Be       1.705     0.474    14.410     8.859
     2   6 C        2.730    -0.180    32.693     9.361
     3   6 C        1.994    -0.170    35.906     9.677
     4   6 C        4.543    -0.113    22.570     6.747
     5   1 H        0.925     0.003     3.000     2.709
     6   1 H        0.925     0.003     3.000     2.709
     7   1 H        0.717     0.026     2.788     2.647
     8   1 H        0.717    -0.044     4.163     3.234

Wiberg/Mayer (AO) data.
largest (>0.10) Wiberg bond orders for each atom

     #   Z sym  total        # sym  WBO       # sym  WBO       # sym  WBO
 ---------------------------------------------------------------------------
     1   4 Be   2.136 --     2 C    1.151     4 C    0.595     3 C    0.373
     2   6 C    3.701 --     3 C    1.896     1 Be   1.151     4 C    0.591
     3   6 C    3.139 --     2 C    1.896     4 C    0.787     1 Be   0.373
     4   6 C    3.923 --     5 H    0.975     6 H    0.975     3 C    0.787
                             1 Be   0.595     2 C    0.591
     5   1 H    1.000 --     4 C    0.975
     6   1 H    1.000 --     4 C    0.975
     7   1 H    0.999 --     8 H    0.941
     8   1 H    0.998 --     7 H    0.941
 ---------------------------------------------------------------------------

molecular dipole:
                 x           y           z       tot (Debye)
 q only:       -0.325      -0.754      -1.602
   full:       -0.180      -1.639      -2.275       7.142

           -------------------------------------------------
          | TOTAL ENERGY               -8.860622037435 Eh   |
          | GRADIENT NORM               0.000933787315 Eh/α |
          | HOMO-LUMO GAP               1.808808512660 eV   |
           -------------------------------------------------

normal termination of xtb
 * finished run on 2025/06/07 at 03:27:54.442
