   * xtb version 6.5.1 (conda-forge) compiled by 'runner@Mac-1657629245115.local' on 2022-07-12
          program call               : xtb BeC4H4.xyz --gfn 2 --opt

   ID    Z sym.   atoms
    1    4 Be     1
    2    6 C      2-5
    3    1 H      6-9

          :  Hamiltonian                  GFN2-xTB          :
 * total energy  :   -10.2100576 Eh     change        0.6184358E-08 Eh
 * total energy  :   -10.4134615 Eh     change       -0.2034040E+00 Eh
 * total energy  :   -10.6206257 Eh     change       -0.2071642E+00 Eh
 * total energy  :   -10.6826602 Eh     change       -0.6203446E-01 Eh
 * total energy  :   -10.7198530 Eh     change       -0.3719279E-01 Eh
 * total energy  :   -10.7530250 Eh     change       -0.3317203E-01 Eh
 * total energy  :   -10.7901418 Eh     change       -0.3711681E-01 Eh
 * total energy  :   -10.7863879 Eh     change        0.3753885E-02 Eh
 * total energy  :   -10.7848719 Eh     change        0.1516051E-02 Eh
 * total energy  :   -10.7959725 Eh     change       -0.1110058E-01 Eh
 * total energy  :   -10.9193052 Eh     change       -0.7600730E-04 Eh
 * total energy  :   -10.9193428 Eh     change       -0.3763222E-04 Eh
 * total energy  :   -10.9193777 Eh     change       -0.3493030E-04 Eh
 * total energy  :   -10.9194022 Eh     change       -0.2450613E-04 Eh
 * total energy  :   -10.9194107 Eh     change       -0.8489708E-05 Eh
 * total energy  :   -10.9194158 Eh     change       -0.5048258E-05 Eh
 * total energy  :   -10.9194207 Eh     change       -0.4922628E-05 Eh
 * total energy  :   -10.9194240 Eh     change       -0.3363016E-05 Eh
 * total energy  :   -10.9194280 Eh     change       -0.3974032E-05 Eh
   *** GEOMETRY OPTIMIZATION CONVERGED AFTER 83 ITERATIONS ***

 final structure:
================
9
 xtb: 6.5.1 (conda-forge)
Be           0.44201878645139        0.34973759898915       -1.20595202680827
C            0.66507986356849        0.54906544645791        0.30357180987494
C            0.85341347981009        0.71866943656868        1.53652488469763
C            1.05672189066215        0.90352258428935        2.81958005594183
C            1.26291041960210        1.10579502213069        4.04595936209147
H            2.91921361161508        0.36252853561191        4.83156574759991
H            3.60495886136409        0.03002174311429        5.09334606550058
H           -0.16568084822486        0.61268415349838        5.30994148537693
H           -0.78263606484884        0.38397547933532        5.77746261574305

          :  Hamiltonian                  GFN2-xTB          :
         :: total energy             -10.919428025444 Eh    ::
         :: gradient norm              0.000836019264 Eh/a0 ::
         :: HOMO-LUMO gap              1.165752014750 eV    ::
         :: SCC energy               -11.212516946718 Eh    ::
         :: -> dispersion             -0.004413380176 Eh    ::
         :: repulsion energy           0.293098986540 Eh    ::

    * Orbital Energies and Occupations

         #    Occupation            Energy/Eh            Energy/eV
      -------------------------------------------------------------
         1        2.0000           -0.5912376             -16.0884
         2        2.0000           -0.5624603             -15.3053
         3        2.0000           -0.5221088             -14.2073
         4        2.0000           -0.4484643             -12.2033
         5        2.0000           -0.4309499             -11.7267
         6        2.0000           -0.4287407             -11.6666
         7        2.0000           -0.4206208             -11.4457
         8        2.0000           -0.4168909             -11.3442
         9        2.0000           -0.3478568              -9.4657
        10        2.0000           -0.3437780              -9.3547
        11        2.0000           -0.3292811              -8.9602 (HOMO)
        12                         -0.2864405              -7.7944 (LUMO)
        13                         -0.2547912              -6.9332
        14                         -0.2543526              -6.9213
        15                         -0.1475588              -4.0153
        16                         -0.1458366              -3.9684
        17                         -0.0242903              -0.6610
        18                         -0.0201803              -0.5491
        19                          0.1709244               4.6511
        20                          0.2048763               5.5750
        21                          0.2096510               5.7049
        22                          0.4060266              11.0485
       ...                                ...                  ...
        24                          1.4133208              38.4584
      -------------------------------------------------------------
                  HL-Gap            0.0428406 Eh            1.1658 eV

     #   Z          covCN         q      C6AA      α(0)
     1   4 Be       0.848     0.504    62.002    23.602
     2   6 C        1.825    -0.270    39.389    10.140
     3   6 C        1.967     0.043    29.979     8.842
     4   6 C        1.963    -0.044    32.247     9.170
     5   6 C        0.982    -0.206    42.883    11.000
     6   1 H        0.709     0.033     2.707     2.611
     7   1 H        0.709    -0.046     4.232     3.265
     8   1 H        0.703     0.033     2.712     2.616
     9   1 H        0.703    -0.046     4.261     3.279

Wiberg/Mayer (AO) data.
largest (>0.10) Wiberg bond orders for each atom

     #   Z sym  total        # sym  WBO       # sym  WBO       # sym  WBO
 ---------------------------------------------------------------------------
     1   4 Be   1.861 --     2 C    1.562     3 C    0.175     4 C    0.124
     2   6 C    3.943 --     3 C    2.114     1 Be   1.562     5 C    0.232
     3   6 C    3.951 --     2 C    2.114     4 C    1.533     1 Be   0.175
                             5 C    0.116
     4   6 C    3.961 --     5 C    2.232     3 C    1.533     1 Be   0.124
     5   6 C    2.769 --     4 C    2.232     2 C    0.232     3 C    0.116
     6   1 H    0.999 --     7 H    0.931
     7   1 H    0.983 --     6 H    0.931
     8   1 H    0.998 --     9 H    0.929
     9   1 H    0.982 --     8 H    0.929
 ---------------------------------------------------------------------------

molecular dipole:
                 x           y           z       tot (Debye)
 q only:       -0.503      -0.371      -3.305
   full:       -0.791      -0.655      -5.173      13.405

           -------------------------------------------------
          | TOTAL ENERGY              -10.919428025444 Eh   |
          | GRADIENT NORM               0.000836019264 Eh/α |
          | HOMO-LUMO GAP               1.165752014750 eV   |
           -------------------------------------------------

 * finished run on 2025/06/07 at 03:27:56.087
normal termination of xtb
