   * xtb version 6.5.1 (conda-forge) compiled by 'runner@Mac-1657629245115.local' on 2022-07-12
          program call               : xtb BeC4H5.xyz --gfn 2 --opt

   ID    Z sym.   atoms
    1    4 Be     1
    2    6 C      2-5
    3    1 H      6-10

          :  Hamiltonian                  GFN2-xTB          :
 * total energy  :   -10.7054871 Eh     change        0.1822524E-07 Eh
 * total energy  :   -10.9123360 Eh     change       -0.2068489E+00 Eh
 * total energy  :   -11.1473446 Eh     change       -0.2350086E+00 Eh
 * total energy  :   -11.2261584 Eh     change       -0.7881379E-01 Eh
 * total energy  :   -11.2793176 Eh     change       -0.5315916E-01 Eh
 * total energy  :   -11.3064571 Eh     change       -0.2713959E-01 Eh
 * total energy  :   -11.3444357 Eh     change       -0.3797853E-01 Eh
 * total energy  :   -11.3583110 Eh     change       -0.1387534E-01 Eh
 * total energy  :   -11.3880483 Eh     change       -0.2973733E-01 Eh
 * total energy  :   -11.3971596 Eh     change       -0.9111245E-02 Eh
 * total energy  :   -11.4799925 Eh     change       -0.3650555E-05 Eh
 * total energy  :   -11.4800016 Eh     change       -0.9127536E-05 Eh
 * total energy  :   -11.4800090 Eh     change       -0.7434100E-05 Eh
 * total energy  :   -11.4800163 Eh     change       -0.7269888E-05 Eh
 * total energy  :   -11.4800256 Eh     change       -0.9306864E-05 Eh
 * total energy  :   -11.4799802 Eh     change        0.4538060E-04 Eh
 * total energy  :   -11.4800277 Eh     change       -0.4750171E-04 Eh
 * total energy  :   -11.4800321 Eh     change       -0.4350987E-05 Eh
 * total energy  :   -11.4800330 Eh     change       -0.9067412E-06 Eh
   *** GEOMETRY OPTIMIZATION CONVERGED AFTER 71 ITERATIONS ***

 final structure:
================
10
 xtb: 6.5.1 (conda-forge)
Be           1.60808621377269        1.34769231432291       -1.46658375927065
C            1.25720439139009        0.81190004969626        0.09071238747952
C            1.04297004966648        0.42093770422573        1.22610594321582
C            0.80003364227748       -0.01168531790351        2.49339557306067
C            0.58943349441335       -0.38150869480458        3.62207275008120
H            0.39151421699278       -0.71235181419793        4.59751371084479
H            2.09026709241856        1.56592241206483        4.56782951585940
H            2.47753049369108        2.04744813214211        5.04579133924874
H            0.62208000698082        0.77460427882912        6.84329678853457
H            0.20888039839952        0.32597793562590        7.32736575096134

          :  Hamiltonian                  GFN2-xTB          :
         :: total energy             -11.480033002418 Eh    ::
         :: gradient norm              0.000607411389 Eh/a0 ::
         :: HOMO-LUMO gap              1.045407087583 eV    ::
         :: SCC energy               -11.824758766745 Eh    ::
         :: -> dispersion             -0.004374346080 Eh    ::
         :: repulsion energy           0.344740321938 Eh    ::

    * Orbital Energies and Occupations

         #    Occupation            Energy/Eh            Energy/eV
      -------------------------------------------------------------
         1        2.0000           -0.5902892             -16.0626
         2        2.0000           -0.5732678             -15.5994
         3        2.0000           -0.5274338             -14.3522
         4        2.0000           -0.4748810             -12.9222
         5        2.0000           -0.4632443             -12.6055
         6        2.0000           -0.4547908             -12.3755
         7        2.0000           -0.4278603             -11.6427
         8        2.0000           -0.4262364             -11.5985
         9        2.0000           -0.3956300             -10.7656
        10        2.0000           -0.3637363              -9.8978
        11        2.0000           -0.3634299              -9.8894
        12        1.0000           -0.2503816              -6.8132 (HOMO)
        13                         -0.2119636              -5.7678 (LUMO)
        14                         -0.2118506              -5.7647
        15                         -0.1255086              -3.4153
        16                         -0.1254058              -3.4125
        17                         -0.0149868              -0.4078
        18                         -0.0148676              -0.4046
        19                          0.0861275               2.3436
        20                          0.1295580               3.5255
        21                          0.1382557               3.7621
        22                          0.2386002               6.4926
        23                          0.4210452              11.4572
       ...                                ...                  ...
        25                          1.6028577              43.6160
      -------------------------------------------------------------
                  HL-Gap            0.0384180 Eh            1.0454 eV

     #   Z          covCN         q      C6AA      α(0)
     1   4 Be       0.841     0.343    69.420    24.971
     2   6 C        1.822    -0.254    38.830    10.068
     3   6 C        1.964    -0.019    31.578     9.075
     4   6 C        1.962    -0.012    31.400     9.049
     5   6 C        1.910    -0.105    34.021     9.420
     6   1 H        0.928     0.053     2.287     2.365
     7   1 H        0.799     0.008     2.986     2.715
     8   1 H        0.799    -0.012     3.333     2.869
     9   1 H        0.808     0.004     3.040     2.738
    10   1 H        0.808    -0.005     3.193     2.806

Wiberg/Mayer (AO) data.
largest (>0.10) Wiberg bond orders for each atom

     #   Z sym  total        # sym  WBO       # sym  WBO       # sym  WBO
 ---------------------------------------------------------------------------
     1   4 Be   0.941 --     2 C    0.842
     2   6 C    3.745 --     3 C    2.645     1 Be   0.842     5 C    0.245
     3   6 C    3.967 --     2 C    2.645     4 C    1.220
     4   6 C    3.976 --     5 C    2.716     3 C    1.220
     5   6 C    3.950 --     4 C    2.716     6 H    0.974     2 C    0.245
     6   1 H    0.996 --     5 C    0.974
     7   1 H    1.000 --     8 H    0.992
     8   1 H    1.000 --     7 H    0.992
     9   1 H    1.000 --    10 H    0.998
    10   1 H    1.000 --     9 H    0.998
 ---------------------------------------------------------------------------

molecular dipole:
                 x           y           z       tot (Debye)
 q only:        0.282       0.454      -1.420
   full:        0.113       0.206      -0.694       1.863

           -------------------------------------------------
          | TOTAL ENERGY              -11.480033002418 Eh   |
          | GRADIENT NORM               0.000607411389 Eh/α |
          | HOMO-LUMO GAP               1.045407087583 eV   |
           -------------------------------------------------

normal termination of xtb
 * finished run on 2025/06/07 at 03:27:56.348
