   * xtb version 6.5.1 (conda-forge) compiled by 'runner@Mac-1657629245115.local' on 2022-07-12
          program call               : xtb BeC4H3.xyz --gfn 2 --opt

   ID    Z sym.   atoms
    1    4 Be     1
    2    6 C      2-5
    3    1 H      6-8

          :  Hamiltonian                  GFN2-xTB          :
 * total energy  :    -9.7607828 Eh     change        0.8444658E-09 Eh
 * total energy  :    -9.9722395 Eh     change       -0.2114566E+00 Eh
 * total energy  :   -10.1987354 Eh     change       -0.2264959E+00 Eh
 * total energy  :   -10.2879400 Eh     change       -0.8920459E-01 Eh
 * total energy  :   -10.3788788 Eh     change       -0.9093885E-01 Eh
 * total energy  :   -10.4002838 Eh     change       -0.2140494E-01 Eh
 * total energy  :   -10.4470121 Eh     change       -0.4672831E-01 Eh
 * total energy  :   -10.4480699 Eh     change       -0.1057793E-02 Eh
 * total energy  :   -10.4669770 Eh     change       -0.1890719E-01 Eh
 * total energy  :   -10.4202447 Eh     change        0.4673233E-01 Eh
 * total energy  :   -10.5353729 Eh     change       -0.1045620E-03 Eh
 * total energy  :   -10.5354753 Eh     change       -0.1024558E-03 Eh
 * total energy  :   -10.5355306 Eh     change       -0.5530368E-04 Eh
 * total energy  :   -10.5355578 Eh     change       -0.2713904E-04 Eh
 * total energy  :   -10.5355736 Eh     change       -0.1580594E-04 Eh
 * total energy  :   -10.5355819 Eh     change       -0.8351012E-05 Eh
 * total energy  :   -10.5355895 Eh     change       -0.7601141E-05 Eh
 * total energy  :   -10.5355945 Eh     change       -0.5002299E-05 Eh
 * total energy  :   -10.5355988 Eh     change       -0.4254959E-05 Eh
   *** GEOMETRY OPTIMIZATION CONVERGED AFTER 37 ITERATIONS ***

 final structure:
================
8
 xtb: 6.5.1 (conda-forge)
Be           0.93376910753148        0.57518924398165       -1.06621159691172
C            1.02667074976012        0.56436117622112        0.44560752430729
C            1.05553418144873        0.54007646607769        1.76608976820075
C            1.09796381691621        0.51852411146706        2.99880292377229
C            1.12277857610237        0.48201306628036        4.44451664929432
H            1.81876200575156       -0.28493041017743        4.79939529167418
H            1.43859312077985        1.44680194258109        4.85193175023028
H            0.12992844170976        0.25090940356895        4.84336768943481

          :  Hamiltonian                  GFN2-xTB          :
         :: total energy             -10.535598783126 Eh    ::
         :: gradient norm              0.000923929559 Eh/a0 ::
         :: HOMO-LUMO gap              1.320099003501 eV    ::
         :: SCC energy               -10.783727599210 Eh    ::
         :: -> dispersion             -0.003899485003 Eh    ::
         :: repulsion energy           0.248134447151 Eh    ::

    * Orbital Energies and Occupations

         #    Occupation            Energy/Eh            Energy/eV
      -------------------------------------------------------------
         1        2.0000           -0.5637418             -15.3402
         2        2.0000           -0.5392907             -14.6748
         3        2.0000           -0.4987941             -13.5729
         4        2.0000           -0.4490115             -12.2182
         5        2.0000           -0.4488844             -12.2148
         6        2.0000           -0.4430542             -12.0561
         7        2.0000           -0.3784686             -10.2987
         8        2.0000           -0.3633471              -9.8872
         9        2.0000           -0.3633240              -9.8865
        10        1.5026           -0.2594305              -7.0595
        11        1.4974           -0.2594107              -7.0589 (HOMO)
        12                         -0.2108980              -5.7388 (LUMO)
        13                         -0.1207021              -3.2845
        14                         -0.1206683              -3.2836
        15                         -0.0009082              -0.0247
        16                         -0.0007492              -0.0204
        17                          0.1425670               3.8794
        18                          0.2126884               5.7875
        19                          0.2583899               7.0311
        20                          0.2600783               7.0771
        21                          0.3941865              10.7264
        22                          0.6550379              17.8245
        23                          1.4407356              39.2044
      -------------------------------------------------------------
                  HL-Gap            0.0485127 Eh            1.3201 eV

     #   Z          covCN         q      C6AA      α(0)
     1   4 Be       0.846     0.465    63.697    23.922
     2   6 C        1.826    -0.340    41.926    10.461
     3   6 C        1.964    -0.036    32.019     9.138
     4   6 C        1.962    -0.105    33.967     9.412
     5   6 C        3.751    -0.071    21.926     6.678
     6   1 H        0.924     0.029     2.601     2.522
     7   1 H        0.924     0.029     2.598     2.521
     8   1 H        0.924     0.029     2.606     2.525

Wiberg/Mayer (AO) data.
largest (>0.10) Wiberg bond orders for each atom

     #   Z sym  total        # sym  WBO       # sym  WBO       # sym  WBO
 ---------------------------------------------------------------------------
     1   4 Be   1.847 --     2 C    1.669     4 C    0.127
     2   6 C    3.275 --     1 Be   1.669     3 C    1.568
     3   6 C    3.960 --     4 C    2.276     2 C    1.568
     4   6 C    3.504 --     3 C    2.276     5 C    1.073     1 Be   0.127
     5   6 C    3.991 --     4 C    1.073     7 H    0.964     6 H    0.964
                             8 H    0.964
     6   1 H    0.983 --     5 C    0.964
     7   1 H    0.983 --     5 C    0.964
     8   1 H    0.983 --     5 C    0.964
 ---------------------------------------------------------------------------

molecular dipole:
                 x           y           z       tot (Debye)
 q only:       -0.093       0.016      -1.741
   full:       -0.143       0.025      -2.750       7.000

           -------------------------------------------------
          | TOTAL ENERGY              -10.535598783126 Eh   |
          | GRADIENT NORM               0.000923929559 Eh/α |
          | HOMO-LUMO GAP               1.320099003501 eV   |
           -------------------------------------------------

 * finished run on 2025/06/07 at 03:27:55.594
normal termination of xtb
