   * xtb version 6.5.1 (conda-forge) compiled by 'runner@Mac-1657629245115.local' on 2022-07-12
          program call               : xtb xtbopt.xyz --gfn 2 --opt

   ID    Z sym.   atoms
    1    4 Be     1
    2    6 C      2-5
    3    1 H      6-11

          :  Hamiltonian                  GFN2-xTB          :
 * total energy  :   -11.9044625 Eh     change       -0.5396572E-11 Eh
   *** GEOMETRY OPTIMIZATION CONVERGED AFTER 1 ITERATIONS ***

 final structure:
================
11
 xtb: 6.5.1 (conda-forge)
Be           0.48087105628852        0.52043746792443       -1.02636138973886
C            0.68319510251161        0.57816088005766        0.49820524636585
C            0.86068544434258        0.62948286449703        1.74339075189002
C            1.04651078257834        0.68522117286781        3.04050164886365
C            1.23675962614138        0.75005260987597        4.28455818798919
H            2.78119458384110       -0.27184278803771        5.00723589315313
H            3.41448648373857       -0.70874280010718        5.24346395084596
H            1.32912144583068        2.56618717348083        5.08165074603048
H            1.35394394650501        3.32512771641621        5.34928729609477
H           -0.14011836321662       -0.05642496098730        5.46845085090522
H           -0.72665010857584       -0.39999133598458        5.89961681762067

          :  Hamiltonian                  GFN2-xTB          :
         :: total energy             -11.904462536581 Eh    ::
         :: gradient norm              0.000366699127 Eh/a0 ::
         :: HOMO-LUMO gap              1.147788256228 eV    ::
         :: SCC energy               -12.225738091916 Eh    ::
         :: -> dispersion             -0.005316494871 Eh    ::
         :: repulsion energy           0.321281192630 Eh    ::

    * Orbital Energies and Occupations

         #    Occupation            Energy/Eh            Energy/eV
      -------------------------------------------------------------
         1        2.0000           -0.5920832             -16.1114
         2        2.0000           -0.5637981             -15.3417
         3        2.0000           -0.5234928             -14.2450
         4        2.0000           -0.4499632             -12.2441
         5        2.0000           -0.4325941             -11.7715
         6        2.0000           -0.4316397             -11.7455
         7        2.0000           -0.4253605             -11.5746
         8        2.0000           -0.4188146             -11.3965
         9        2.0000           -0.4176464             -11.3647
        10        2.0000           -0.3461838              -9.4201
        11        2.0000           -0.3455278              -9.4023
        12        2.0000           -0.3292339              -8.9589 (HOMO)
        13                         -0.2870534              -7.8111 (LUMO)
        14                         -0.2556849              -6.9575
        15                         -0.2555986              -6.9552
        16                         -0.1489131              -4.0521
        17                         -0.1485818              -4.0431
        18                         -0.0255755              -0.6959
        19                         -0.0248488              -0.6762
        20                          0.1600732               4.3558
        21                          0.2009575               5.4683
        22                          0.2022520               5.5036
        23                          0.2081228               5.6633
       ...                                ...                  ...
        26                          1.4138155              38.4719
      -------------------------------------------------------------
                  HL-Gap            0.0421804 Eh            1.1478 eV

     #   Z          covCN         q      C6AA      α(0)
     1   4 Be       0.848     0.505    61.985    23.599
     2   6 C        1.825    -0.270    39.372    10.138
     3   6 C        1.967     0.042    29.996     8.845
     4   6 C        1.963    -0.045    32.291     9.177
     5   6 C        0.982    -0.193    42.379    10.935
     6   1 H        0.713     0.030     2.732     2.622
     7   1 H        0.713    -0.043     4.157     3.234
     8   1 H        0.712     0.030     2.734     2.623
     9   1 H        0.712    -0.043     4.166     3.238
    10   1 H        0.712     0.031     2.731     2.621
    11   1 H        0.712    -0.043     4.164     3.237

Wiberg/Mayer (AO) data.
largest (>0.10) Wiberg bond orders for each atom

     #   Z sym  total        # sym  WBO       # sym  WBO       # sym  WBO
 ---------------------------------------------------------------------------
     1   4 Be   1.859 --     2 C    1.562     3 C    0.174     4 C    0.123
     2   6 C    3.937 --     3 C    2.112     1 Be   1.562     5 C    0.228
     3   6 C    3.952 --     2 C    2.112     4 C    1.535     1 Be   0.174
                             5 C    0.111
     4   6 C    3.961 --     5 C    2.213     3 C    1.535     1 Be   0.123
     5   6 C    2.823 --     4 C    2.213     2 C    0.228     3 C    0.111
     6   1 H    0.999 --     7 H    0.933
     7   1 H    0.983 --     6 H    0.933
     8   1 H    0.999 --     9 H    0.933
     9   1 H    0.983 --     8 H    0.933
    10   1 H    0.999 --    11 H    0.933
    11   1 H    0.983 --    10 H    0.933
 ---------------------------------------------------------------------------

molecular dipole:
                 x           y           z       tot (Debye)
 q only:       -0.463      -0.134      -3.368
   full:       -0.727      -0.214      -5.257      13.501

           -------------------------------------------------
          | TOTAL ENERGY              -11.904462536581 Eh   |
          | GRADIENT NORM               0.000366699127 Eh/α |
          | HOMO-LUMO GAP               1.147788256228 eV   |
           -------------------------------------------------

 * finished run on 2025/06/07 at 03:27:56.659
normal termination of xtb
